<pdos>
<nspin>1</nspin>
<norbitals>202</norbitals>
<fermi_energy units="eV"> -0.337615392E+01</fermi_energy>
<energy_values units="eV">
 -0.149999840E+02
 -0.149599039E+02
 -0.149198237E+02
 -0.148797436E+02
 -0.148396635E+02
 -0.147995834E+02
 -0.147595033E+02
 -0.147194231E+02
 -0.146793430E+02
 -0.146392629E+02
 -0.145991828E+02
 -0.145591027E+02
 -0.145190226E+02
 -0.144789424E+02
 -0.144388623E+02
 -0.143987822E+02
 -0.143587021E+02
 -0.143186220E+02
 -0.142785419E+02
 -0.142384617E+02
 -0.141983816E+02
 -0.141583015E+02
 -0.141182214E+02
 -0.140781413E+02
 -0.140380611E+02
 -0.139979810E+02
 -0.139579009E+02
 -0.139178208E+02
 -0.138777407E+02
 -0.138376606E+02
 -0.137975804E+02
 -0.137575003E+02
 -0.137174202E+02
 -0.136773401E+02
 -0.136372600E+02
 -0.135971799E+02
 -0.135570997E+02
 -0.135170196E+02
 -0.134769395E+02
 -0.134368594E+02
 -0.133967793E+02
 -0.133566992E+02
 -0.133166190E+02
 -0.132765389E+02
 -0.132364588E+02
 -0.131963787E+02
 -0.131562986E+02
 -0.131162184E+02
 -0.130761383E+02
 -0.130360582E+02
 -0.129959781E+02
 -0.129558980E+02
 -0.129158179E+02
 -0.128757377E+02
 -0.128356576E+02
 -0.127955775E+02
 -0.127554974E+02
 -0.127154173E+02
 -0.126753372E+02
 -0.126352570E+02
 -0.125951769E+02
 -0.125550968E+02
 -0.125150167E+02
 -0.124749366E+02
 -0.124348564E+02
 -0.123947763E+02
 -0.123546962E+02
 -0.123146161E+02
 -0.122745360E+02
 -0.122344559E+02
 -0.121943757E+02
 -0.121542956E+02
 -0.121142155E+02
 -0.120741354E+02
 -0.120340553E+02
 -0.119939752E+02
 -0.119538950E+02
 -0.119138149E+02
 -0.118737348E+02
 -0.118336547E+02
 -0.117935746E+02
 -0.117534945E+02
 -0.117134143E+02
 -0.116733342E+02
 -0.116332541E+02
 -0.115931740E+02
 -0.115530939E+02
 -0.115130137E+02
 -0.114729336E+02
 -0.114328535E+02
 -0.113927734E+02
 -0.113526933E+02
 -0.113126132E+02
 -0.112725330E+02
 -0.112324529E+02
 -0.111923728E+02
 -0.111522927E+02
 -0.111122126E+02
 -0.110721325E+02
 -0.110320523E+02
 -0.109919722E+02
 -0.109518921E+02
 -0.109118120E+02
 -0.108717319E+02
 -0.108316518E+02
 -0.107915716E+02
 -0.107514915E+02
 -0.107114114E+02
 -0.106713313E+02
 -0.106312512E+02
 -0.105911710E+02
 -0.105510909E+02
 -0.105110108E+02
 -0.104709307E+02
 -0.104308506E+02
 -0.103907705E+02
 -0.103506903E+02
 -0.103106102E+02
 -0.102705301E+02
 -0.102304500E+02
 -0.101903699E+02
 -0.101502898E+02
 -0.101102096E+02
 -0.100701295E+02
 -0.100300494E+02
 -0.998996928E+01
 -0.994988917E+01
 -0.990980905E+01
 -0.986972893E+01
 -0.982964881E+01
 -0.978956870E+01
 -0.974948858E+01
 -0.970940846E+01
 -0.966932834E+01
 -0.962924823E+01
 -0.958916811E+01
 -0.954908799E+01
 -0.950900787E+01
 -0.946892776E+01
 -0.942884764E+01
 -0.938876752E+01
 -0.934868740E+01
 -0.930860729E+01
 -0.926852717E+01
 -0.922844705E+01
 -0.918836693E+01
 -0.914828682E+01
 -0.910820670E+01
 -0.906812658E+01
 -0.902804646E+01
 -0.898796635E+01
 -0.894788623E+01
 -0.890780611E+01
 -0.886772599E+01
 -0.882764588E+01
 -0.878756576E+01
 -0.874748564E+01
 -0.870740552E+01
 -0.866732541E+01
 -0.862724529E+01
 -0.858716517E+01
 -0.854708505E+01
 -0.850700494E+01
 -0.846692482E+01
 -0.842684470E+01
 -0.838676458E+01
 -0.834668447E+01
 -0.830660435E+01
 -0.826652423E+01
 -0.822644411E+01
 -0.818636400E+01
 -0.814628388E+01
 -0.810620376E+01
 -0.806612364E+01
 -0.802604353E+01
 -0.798596341E+01
 -0.794588329E+01
 -0.790580317E+01
 -0.786572306E+01
 -0.782564294E+01
 -0.778556282E+01
 -0.774548270E+01
 -0.770540259E+01
 -0.766532247E+01
 -0.762524235E+01
 -0.758516223E+01
 -0.754508212E+01
 -0.750500200E+01
 -0.746492188E+01
 -0.742484176E+01
 -0.738476165E+01
 -0.734468153E+01
 -0.730460141E+01
 -0.726452129E+01
 -0.722444118E+01
 -0.718436106E+01
 -0.714428094E+01
 -0.710420082E+01
 -0.706412071E+01
 -0.702404059E+01
 -0.698396047E+01
 -0.694388035E+01
 -0.690380024E+01
 -0.686372012E+01
 -0.682364000E+01
 -0.678355988E+01
 -0.674347977E+01
 -0.670339965E+01
 -0.666331953E+01
 -0.662323941E+01
 -0.658315930E+01
 -0.654307918E+01
 -0.650299906E+01
 -0.646291894E+01
 -0.642283883E+01
 -0.638275871E+01
 -0.634267859E+01
 -0.630259847E+01
 -0.626251836E+01
 -0.622243824E+01
 -0.618235812E+01
 -0.614227800E+01
 -0.610219789E+01
 -0.606211777E+01
 -0.602203765E+01
 -0.598195753E+01
 -0.594187742E+01
 -0.590179730E+01
 -0.586171718E+01
 -0.582163706E+01
 -0.578155695E+01
 -0.574147683E+01
 -0.570139671E+01
 -0.566131659E+01
 -0.562123648E+01
 -0.558115636E+01
 -0.554107624E+01
 -0.550099612E+01
 -0.546091601E+01
 -0.542083589E+01
 -0.538075577E+01
 -0.534067565E+01
 -0.530059554E+01
 -0.526051542E+01
 -0.522043530E+01
 -0.518035518E+01
 -0.514027507E+01
 -0.510019495E+01
 -0.506011483E+01
 -0.502003471E+01
 -0.497995460E+01
 -0.493987448E+01
 -0.489979436E+01
 -0.485971425E+01
 -0.481963413E+01
 -0.477955401E+01
 -0.473947389E+01
 -0.469939378E+01
 -0.465931366E+01
 -0.461923354E+01
 -0.457915342E+01
 -0.453907331E+01
 -0.449899319E+01
 -0.445891307E+01
 -0.441883295E+01
 -0.437875284E+01
 -0.433867272E+01
 -0.429859260E+01
 -0.425851248E+01
 -0.421843237E+01
 -0.417835225E+01
 -0.413827213E+01
 -0.409819201E+01
 -0.405811190E+01
 -0.401803178E+01
 -0.397795166E+01
 -0.393787154E+01
 -0.389779143E+01
 -0.385771131E+01
 -0.381763119E+01
 -0.377755107E+01
 -0.373747096E+01
 -0.369739084E+01
 -0.365731072E+01
 -0.361723060E+01
 -0.357715049E+01
 -0.353707037E+01
 -0.349699025E+01
 -0.345691013E+01
 -0.341683002E+01
 -0.337674990E+01
 -0.333666978E+01
 -0.329658966E+01
 -0.325650955E+01
 -0.321642943E+01
 -0.317634931E+01
 -0.313626919E+01
 -0.309618908E+01
 -0.305610896E+01
 -0.301602884E+01
 -0.297594872E+01
 -0.293586861E+01
 -0.289578849E+01
 -0.285570837E+01
 -0.281562825E+01
 -0.277554814E+01
 -0.273546802E+01
 -0.269538790E+01
 -0.265530778E+01
 -0.261522767E+01
 -0.257514755E+01
 -0.253506743E+01
 -0.249498731E+01
 -0.245490720E+01
 -0.241482708E+01
 -0.237474696E+01
 -0.233466684E+01
 -0.229458673E+01
 -0.225450661E+01
 -0.221442649E+01
 -0.217434637E+01
 -0.213426626E+01
 -0.209418614E+01
 -0.205410602E+01
 -0.201402590E+01
 -0.197394579E+01
 -0.193386567E+01
 -0.189378555E+01
 -0.185370543E+01
 -0.181362532E+01
 -0.177354520E+01
 -0.173346508E+01
 -0.169338496E+01
 -0.165330485E+01
 -0.161322473E+01
 -0.157314461E+01
 -0.153306449E+01
 -0.149298438E+01
 -0.145290426E+01
 -0.141282414E+01
 -0.137274402E+01
 -0.133266391E+01
 -0.129258379E+01
 -0.125250367E+01
 -0.121242355E+01
 -0.117234344E+01
 -0.113226332E+01
 -0.109218320E+01
 -0.105210308E+01
 -0.101202297E+01
 -0.971942849E+00
 -0.931862732E+00
 -0.891782614E+00
 -0.851702497E+00
 -0.811622379E+00
 -0.771542262E+00
 -0.731462144E+00
 -0.691382027E+00
 -0.651301909E+00
 -0.611221792E+00
 -0.571141674E+00
 -0.531061557E+00
 -0.490981439E+00
 -0.450901322E+00
 -0.410821204E+00
 -0.370741087E+00
 -0.330660969E+00
 -0.290580852E+00
 -0.250500734E+00
 -0.210420617E+00
 -0.170340499E+00
 -0.130260382E+00
 -0.901802643E-01
 -0.501001469E-01
 -0.100200294E-01
  0.300600881E-01
  0.701402056E-01
  0.110220323E+00
  0.150300441E+00
  0.190380558E+00
  0.230460676E+00
  0.270540793E+00
  0.310620911E+00
  0.350701028E+00
  0.390781145E+00
  0.430861263E+00
  0.470941380E+00
  0.511021498E+00
  0.551101615E+00
  0.591181733E+00
  0.631261850E+00
  0.671341968E+00
  0.711422085E+00
  0.751502203E+00
  0.791582320E+00
  0.831662438E+00
  0.871742555E+00
  0.911822673E+00
  0.951902790E+00
  0.991982908E+00
  0.103206303E+01
  0.107214314E+01
  0.111222326E+01
  0.115230338E+01
  0.119238350E+01
  0.123246361E+01
  0.127254373E+01
  0.131262385E+01
  0.135270397E+01
  0.139278408E+01
  0.143286420E+01
  0.147294432E+01
  0.151302444E+01
  0.155310455E+01
  0.159318467E+01
  0.163326479E+01
  0.167334490E+01
  0.171342502E+01
  0.175350514E+01
  0.179358526E+01
  0.183366537E+01
  0.187374549E+01
  0.191382561E+01
  0.195390573E+01
  0.199398584E+01
  0.203406596E+01
  0.207414608E+01
  0.211422620E+01
  0.215430631E+01
  0.219438643E+01
  0.223446655E+01
  0.227454667E+01
  0.231462678E+01
  0.235470690E+01
  0.239478702E+01
  0.243486714E+01
  0.247494725E+01
  0.251502737E+01
  0.255510749E+01
  0.259518761E+01
  0.263526772E+01
  0.267534784E+01
  0.271542796E+01
  0.275550808E+01
  0.279558819E+01
  0.283566831E+01
  0.287574843E+01
  0.291582855E+01
  0.295590866E+01
  0.299598878E+01
  0.303606890E+01
  0.307614902E+01
  0.311622913E+01
  0.315630925E+01
  0.319638937E+01
  0.323646949E+01
  0.327654960E+01
  0.331662972E+01
  0.335670984E+01
  0.339678996E+01
  0.343687007E+01
  0.347695019E+01
  0.351703031E+01
  0.355711043E+01
  0.359719054E+01
  0.363727066E+01
  0.367735078E+01
  0.371743090E+01
  0.375751101E+01
  0.379759113E+01
  0.383767125E+01
  0.387775137E+01
  0.391783148E+01
  0.395791160E+01
  0.399799172E+01
  0.403807184E+01
  0.407815195E+01
  0.411823207E+01
  0.415831219E+01
  0.419839231E+01
  0.423847242E+01
  0.427855254E+01
  0.431863266E+01
  0.435871278E+01
  0.439879289E+01
  0.443887301E+01
  0.447895313E+01
  0.451903325E+01
  0.455911336E+01
  0.459919348E+01
  0.463927360E+01
  0.467935372E+01
  0.471943383E+01
  0.475951395E+01
  0.479959407E+01
  0.483967419E+01
  0.487975430E+01
  0.491983442E+01
  0.495991454E+01
  0.499999466E+01
</energy_values>
<orbital 
 index="                        1" 
 atom_index="                        1" 
 species="H" 
 Z="                        1" 
 position="  14.016261   4.984600  47.243172" 
 n="                        1" 
 l="                        0" 
 m="                        0" 
 z="                        1" 
 P="false" 
>
<data>
  0.339892575E-01
  0.302916866E-01
  0.244663792E-01
  0.178889671E-01
  0.124201903E-01
  0.908480737E-02
  0.762804661E-02
  0.724132868E-02
  0.730725693E-02
  0.746130868E-02
  0.731473485E-02
  0.644588793E-02
  0.479177612E-02
  0.286913092E-02
  0.135694730E-02
  0.549544758E-03
  0.392860411E-03
  0.996854322E-03
  0.305986542E-02
  0.770305714E-02
  0.155511925E-01
  0.257290575E-01
  0.357508615E-01
  0.425762671E-01
  0.444716114E-01
  0.422867969E-01
  0.385212175E-01
  0.351859824E-01
  0.329050418E-01
  0.314859679E-01
  0.306159084E-01
  0.300923499E-01
  0.298119709E-01
  0.297356853E-01
  0.298679032E-01
  0.302529077E-01
  0.309637808E-01
  0.319773831E-01
  0.329009414E-01
  0.329051242E-01
  0.313423480E-01
  0.285616267E-01
  0.256857306E-01
  0.236371906E-01
  0.231082116E-01
  0.252316406E-01
  0.309416225E-01
  0.394612546E-01
  0.484021515E-01
  0.553585038E-01
  0.589810159E-01
  0.590750230E-01
  0.560823961E-01
  0.505520948E-01
  0.434586932E-01
  0.365395063E-01
  0.313610125E-01
  0.282193414E-01
  0.264189467E-01
  0.252652474E-01
  0.244542001E-01
  0.238835134E-01
  0.235486092E-01
  0.235296682E-01
  0.237281180E-01
  0.235443476E-01
  0.221034307E-01
  0.191812582E-01
  0.158661162E-01
  0.138318951E-01
  0.138444333E-01
  0.153970374E-01
  0.180460984E-01
  0.226284966E-01
  0.302322775E-01
  0.396744618E-01
  0.472103888E-01
  0.499090952E-01
  0.483739056E-01
  0.453710595E-01
  0.430922145E-01
  0.423215857E-01
  0.431917167E-01
  0.459988827E-01
  0.512364375E-01
  0.588517466E-01
  0.674406687E-01
  0.742438396E-01
  0.764956221E-01
  0.735643713E-01
  0.675526931E-01
  0.612493723E-01
  0.560387259E-01
  0.520289856E-01
  0.492582843E-01
  0.483677398E-01
  0.503272719E-01
  0.550997350E-01
  0.605012731E-01
  0.634373550E-01
  0.625612102E-01
  0.589631232E-01
  0.545797464E-01
  0.507666139E-01
  0.480167794E-01
  0.463034816E-01
  0.455312520E-01
  0.457730820E-01
  0.470248208E-01
  0.484683604E-01
  0.484357083E-01
  0.460915137E-01
  0.427214546E-01
  0.400684602E-01
  0.378611485E-01
  0.345394970E-01
  0.303584169E-01
  0.282299276E-01
  0.308781499E-01
  0.373324561E-01
  0.421655903E-01
  0.397077745E-01
  0.301684482E-01
  0.195998335E-01
  0.140071121E-01
  0.166122753E-01
  0.293641530E-01
  0.519854884E-01
  0.787553907E-01
  0.100213112E+00
  0.110111544E+00
  0.109347299E+00
  0.103309112E+00
  0.970459419E-01
  0.921226397E-01
  0.864582144E-01
  0.776090103E-01
  0.666461658E-01
  0.577917506E-01
  0.541772373E-01
  0.550281240E-01
  0.570094059E-01
  0.578050434E-01
  0.583650800E-01
  0.617336493E-01
  0.694563692E-01
  0.787092187E-01
  0.833750500E-01
  0.790370674E-01
  0.670838086E-01
  0.535580760E-01
  0.442447305E-01
  0.408906732E-01
  0.410749128E-01
  0.408782951E-01
  0.381559574E-01
  0.338226151E-01
  0.303079168E-01
  0.293518726E-01
  0.311933056E-01
  0.347222843E-01
  0.379616445E-01
  0.393521544E-01
  0.389131127E-01
  0.377245041E-01
  0.366908458E-01
  0.361120343E-01
  0.359215159E-01
  0.360167269E-01
  0.363868304E-01
  0.371501472E-01
  0.387584764E-01
  0.421539048E-01
  0.483964741E-01
  0.574769528E-01
  0.671978608E-01
  0.738462104E-01
  0.746477905E-01
  0.696182840E-01
  0.605684402E-01
  0.488768689E-01
  0.358184457E-01
  0.239917145E-01
  0.159392755E-01
  0.119592869E-01
  0.105559783E-01
  0.102241318E-01
  0.102060528E-01
  0.102627161E-01
  0.103440314E-01
  0.104431831E-01
  0.105603792E-01
  0.106970287E-01
  0.108551450E-01
  0.110375304E-01
  0.112479569E-01
  0.114915385E-01
  0.117752285E-01
  0.121086407E-01
  0.125053935E-01
  0.129855523E-01
  0.135805081E-01
  0.143440469E-01
  0.153773429E-01
  0.168677521E-01
  0.190697176E-01
  0.220101533E-01
  0.248250498E-01
  0.254964230E-01
  0.222248405E-01
  0.155948955E-01
  0.850884033E-02
  0.353266653E-02
  0.110094902E-02
  0.255288202E-03
  0.437830287E-04
  0.553066449E-05
  0.512830288E-06
  0.342610333E-07
 -0.596936137E-19
 -0.702689933E-19
 -0.919997721E-19
 -0.143893974E-18
 -0.245798519E-18
 -0.390705473E-18
 -0.526151990E-18
 -0.583856024E-18
 -0.538773466E-18
 -0.434595046E-18
 -0.349848513E-18
 -0.335318152E-18
 -0.377454341E-18
 -0.416710792E-18
 -0.398683420E-18
 -0.316581256E-18
 -0.211459314E-18
 -0.129879289E-18
 -0.872907975E-19
 -0.722406583E-19
 -0.691549937E-19
 -0.695035426E-19
 -0.704882252E-19
 -0.714945551E-19
 -0.724503059E-19
 -0.733774951E-19
 -0.742812709E-19
 -0.751805117E-19
 -0.760373530E-19
 -0.767637571E-19
 -0.773297973E-19
 -0.777740447E-19
 -0.782110181E-19
 -0.787282056E-19
 -0.793173020E-19
 -0.799687923E-19
 -0.806681313E-19
 -0.814108604E-19
 -0.822205242E-19
 -0.831038882E-19
 -0.840852116E-19
 -0.851932230E-19
 -0.864548799E-19
 -0.879197526E-19
 -0.896430284E-19
 -0.917070041E-19
 -0.942324962E-19
 -0.974028901E-19
 -0.101535926E-18
 -0.107226303E-18
 -0.115595178E-18
 -0.128237043E-18
 -0.145521940E-18
 -0.162428945E-18
 -0.166412707E-18
 -0.145568435E-18
 -0.102820934E-18
 -0.565310914E-19
 -0.236475177E-19
 -0.742054975E-20
 -0.173112720E-20
 -0.298452644E-21
 -0.378669708E-22
 -0.352208137E-23
 -0.237954993E-24
  0.000000000E+00
  0.000000000E+00
  0.000000000E+00
  0.000000000E+00
  0.000000000E+00
  0.000000000E+00
  0.000000000E+00
  0.000000000E+00
  0.000000000E+00
  0.000000000E+00
  0.000000000E+00
  0.000000000E+00
  0.000000000E+00
  0.000000000E+00
  0.000000000E+00
  0.000000000E+00
  0.000000000E+00
  0.000000000E+00
  0.000000000E+00
  0.000000000E+00
  0.000000000E+00
  0.000000000E+00
  0.000000000E+00
 -0.866889337E-25
 -0.154734895E-23
 -0.185275000E-22
 -0.161962152E-21
 -0.103938684E-20
 -0.491275515E-20
 -0.171843574E-19
 -0.448088001E-19
 -0.881078938E-19
 -0.133115685E-18
 -0.159363161E-18
 -0.158751095E-18
 -0.140960137E-18
 -0.120290867E-18
 -0.104040644E-18
 -0.926947569E-19
 -0.845893345E-19
 -0.783801253E-19
 -0.733373877E-19
 -0.690787228E-19
 -0.653856962E-19
 -0.621247426E-19
 -0.591971616E-19
 -0.565426955E-19
 -0.541146863E-19
 -0.518705683E-19
 -0.498045383E-19
 -0.478999144E-19
 -0.461506322E-19
 -0.445649766E-19
 -0.431077821E-19
 -0.418527546E-19
 -0.412059136E-19
 -0.422102154E-19
 -0.465138931E-19
 -0.548094363E-19
 -0.648904124E-19
 -0.725820518E-19
 -0.753790871E-19
 -0.743275305E-19
 -0.720294523E-19
 -0.700505983E-19
 -0.686833000E-19
 -0.678301213E-19
 -0.672748975E-19
 -0.666686330E-19
 -0.655582236E-19
 -0.632389362E-19
 -0.590893608E-19
 -0.542868964E-19
 -0.537034339E-19
 -0.640789327E-19
 -0.869032222E-19
 -0.113612260E-18
 -0.132320400E-18
 -0.139319826E-18
 -0.140206151E-18
 -0.142059240E-18
 -0.148924016E-18
 -0.162583967E-18
 -0.182986603E-18
 -0.204893771E-18
 -0.214213378E-18
 -0.195035138E-18
 -0.147090321E-18
 -0.907595257E-19
 -0.486921415E-19
 -0.275301896E-19
 -0.200378582E-19
 -0.176375570E-19
 -0.163857591E-19
 -0.151989954E-19
 -0.138545994E-19
 -0.126160375E-19
 -0.115556655E-19
 -0.104066714E-19
 -0.914449722E-20
 -0.790938459E-20
 -0.668014376E-20
 -0.532113235E-20
 -0.378077984E-20
 -0.222663693E-20
 -0.677774634E-21
  0.117508596E-20
  0.336412459E-20
  0.570443920E-20
  0.837870241E-20
  0.115550907E-19
  0.151341627E-19
  0.193163620E-19
  0.247615500E-19
  0.321437579E-19
  0.408265510E-19
  0.472003569E-19
  0.461070896E-19
  0.358870695E-19
  0.214934986E-19
  0.112644185E-19
  0.104409101E-19
  0.181325267E-19
  0.298936120E-19
  0.422755209E-19
  0.547536213E-19
  0.679608244E-19
  0.819211634E-19
  0.970863958E-19
  0.115022451E-18
  0.136683060E-18
  0.162244543E-18
  0.193277815E-18
  0.282767631E-07
  0.742387157E-06
  0.101297257E-04
  0.100266295E-03
  0.727642061E-03
  0.388176600E-02
  0.152989608E-01
  0.449144220E-01
  0.997022099E-01
  0.172087325E+00
  0.242516369E+00
  0.298896756E+00
  0.342028751E+00
  0.368790104E+00
  0.369081949E+00
  0.343382751E+00
  0.306697223E+00
  0.273580763E+00
  0.248889129E+00
  0.231092436E+00
  0.217628923E+00
  0.206826620E+00
  0.197796139E+00
  0.190052065E+00
  0.183303028E+00
  0.177359835E+00
  0.172093784E+00
  0.167415527E+00
  0.163264039E+00
  0.159600750E+00
  0.156407147E+00
  0.153684900E+00
  0.151458650E+00
  0.149782914E+00
  0.148757218E+00
  0.148561110E+00
  0.149535810E+00
  0.152325230E+00
  0.157870757E+00
  0.166528986E+00
  0.175884270E+00
  0.179834051E+00
  0.173286439E+00
  0.158796738E+00
  0.143415124E+00
  0.127453674E+00
  0.103832744E+00
  0.709973721E-01
  0.383193831E-01
  0.157805665E-01
  0.487002122E-02
  0.111502186E-02
  0.188272086E-03
  0.236742702E-04
  0.627058914E-05
  0.387570662E-04
  0.263242661E-03
  0.132061644E-02
  0.489891523E-02
  0.135344988E-01
  0.281672462E-01
  0.449849258E-01
  0.568420279E-01
  0.596484268E-01
  0.556584236E-01
  0.497836272E-01
  0.450343215E-01
  0.419229244E-01
  0.400686278E-01
  0.395946660E-01
  0.424861724E-01
  0.540160269E-01
  0.806713630E-01
  0.120635616E+00
  0.155933651E+00
  0.164419222E+00
  0.143240305E+00
  0.110611720E+00
  0.844159990E-01
  0.691453918E-01
  0.612128840E-01
  0.572633272E-01
  0.563303760E-01
</data>
</orbital>
<orbital 
 index="                        2" 
 atom_index="                        1" 
 species="H" 
 Z="                        1" 
 position="  14.016261   4.984600  47.243172" 
 n="                        1" 
 l="                        0" 
 m="                        0" 
 z="                        2" 
 P="false" 
>
<data>
  0.101097120E-01
  0.880262323E-02
  0.698839842E-02
  0.513540850E-02
  0.370291987E-02
  0.287237151E-02
  0.252609950E-02
  0.244762666E-02
  0.248369886E-02
  0.253647362E-02
  0.248255411E-02
  0.218260768E-02
  0.161754968E-02
  0.963713366E-03
  0.451214769E-03
  0.179200639E-03
  0.131504572E-03
  0.356143441E-03
  0.111203198E-02
  0.280130376E-02
  0.562871692E-02
  0.924700465E-02
  0.127541766E-01
  0.151012644E-01
  0.157266528E-01
  0.149546450E-01
  0.136545658E-01
  0.125148137E-01
  0.117457417E-01
  0.112791080E-01
  0.110065980E-01
  0.108588267E-01
  0.108016074E-01
  0.108240610E-01
  0.109324315E-01
  0.111510289E-01
  0.115177344E-01
  0.120253123E-01
  0.124925535E-01
  0.125300772E-01
  0.118283901E-01
  0.105457097E-01
  0.921068590E-02
  0.824478201E-02
  0.788873720E-02
  0.850599884E-02
  0.104197737E-01
  0.133645674E-01
  0.164881561E-01
  0.189120920E-01
  0.201331433E-01
  0.200942164E-01
  0.190262852E-01
  0.172158766E-01
  0.150120171E-01
  0.129163812E-01
  0.113598978E-01
  0.104133304E-01
  0.986875448E-02
  0.952598808E-02
  0.930262375E-02
  0.917398704E-02
  0.914789389E-02
  0.926160105E-02
  0.947074018E-02
  0.950414873E-02
  0.895378851E-02
  0.769958923E-02
  0.623201963E-02
  0.532507000E-02
  0.534041081E-02
  0.604355547E-02
  0.717412670E-02
  0.897758510E-02
  0.118448763E-01
  0.153663616E-01
  0.182008310E-01
  0.192919457E-01
  0.188585870E-01
  0.179018825E-01
  0.172127552E-01
  0.170690682E-01
  0.175111116E-01
  0.186540525E-01
  0.207298797E-01
  0.237988184E-01
  0.273376555E-01
  0.301495020E-01
  0.309891892E-01
  0.295721574E-01
  0.268181588E-01
  0.239415818E-01
  0.215626193E-01
  0.197455232E-01
  0.184920757E-01
  0.180317893E-01
  0.187248795E-01
  0.205460454E-01
  0.226411917E-01
  0.238057518E-01
  0.235252026E-01
  0.222394194E-01
  0.206998886E-01
  0.194061688E-01
  0.185216463E-01
  0.180320984E-01
  0.179196552E-01
  0.182323495E-01
  0.189491525E-01
  0.196468888E-01
  0.195008154E-01
  0.180894837E-01
  0.160688841E-01
  0.144839065E-01
  0.135542625E-01
  0.127272875E-01
  0.118561886E-01
  0.117186940E-01
  0.131450586E-01
  0.157280488E-01
  0.174645531E-01
  0.163092761E-01
  0.124660435E-01
  0.831771714E-02
  0.616816550E-02
  0.724748310E-02
  0.123262779E-01
  0.213156131E-01
  0.319710222E-01
  0.405848362E-01
  0.447968292E-01
  0.451354488E-01
  0.438334392E-01
  0.427719547E-01
  0.421426566E-01
  0.404471963E-01
  0.362592687E-01
  0.303089975E-01
  0.251486185E-01
  0.226586286E-01
  0.225512357E-01
  0.232404573E-01
  0.236817463E-01
  0.243780602E-01
  0.267769942E-01
  0.315451030E-01
  0.371585577E-01
  0.404429265E-01
  0.390478594E-01
  0.334735425E-01
  0.266140560E-01
  0.214544897E-01
  0.190966880E-01
  0.185287290E-01
  0.179526442E-01
  0.164243161E-01
  0.143951084E-01
  0.129004533E-01
  0.125754721E-01
  0.134066562E-01
  0.148981633E-01
  0.162803280E-01
  0.169692872E-01
  0.169826597E-01
  0.167319287E-01
  0.165586152E-01
  0.165781414E-01
  0.167675015E-01
  0.170924269E-01
  0.175550741E-01
  0.182026928E-01
  0.192046594E-01
  0.209236377E-01
  0.238319706E-01
  0.281141870E-01
  0.331031720E-01
  0.372209194E-01
  0.388614455E-01
  0.374896897E-01
  0.335203163E-01
  0.273990134E-01
  0.199002984E-01
  0.128236934E-01
  0.793162625E-02
  0.551322979E-02
  0.468040786E-02
  0.451010990E-02
  0.453428050E-02
  0.460502501E-02
  0.469148346E-02
  0.478959693E-02
  0.489961550E-02
  0.502245052E-02
  0.515930023E-02
  0.531173962E-02
  0.548180638E-02
  0.567219013E-02
  0.588647410E-02
  0.612953475E-02
  0.640818346E-02
  0.673231798E-02
  0.711718339E-02
  0.758846258E-02
  0.819397478E-02
  0.902327414E-02
  0.102038861E-01
  0.117649429E-01
  0.132947511E-01
  0.137519759E-01
  0.121247692E-01
  0.862295197E-02
  0.476953256E-02
  0.200568332E-02
  0.632242968E-03
  0.148061055E-03
  0.256071836E-04
  0.325753052E-05
  0.303846120E-06
  0.204647919E-07
  0.442788536E-19
  0.491487247E-19
  0.595697913E-19
  0.850071886E-19
  0.134687701E-18
  0.204136351E-18
  0.267035792E-18
  0.291054455E-18
  0.266210915E-18
  0.214914167E-18
  0.174487098E-18
  0.168356525E-18
  0.189729271E-18
  0.210080375E-18
  0.203046847E-18
  0.164938085E-18
  0.115261136E-18
  0.764530150E-19
  0.561053414E-19
  0.488553417E-19
  0.472908867E-19
  0.473332694E-19
  0.476471490E-19
  0.479286448E-19
  0.481283780E-19
  0.482363478E-19
  0.482217820E-19
  0.481249814E-19
  0.480950978E-19
  0.483572632E-19
  0.490257980E-19
  0.498805957E-19
  0.505704930E-19
  0.509266909E-19
  0.509963215E-19
  0.509256886E-19
  0.508048478E-19
  0.506654481E-19
  0.505307926E-19
  0.504011147E-19
  0.502874440E-19
  0.502022501E-19
  0.501535310E-19
  0.501632684E-19
  0.502519129E-19
  0.504525514E-19
  0.508146032E-19
  0.514127713E-19
  0.523815866E-19
  0.539756546E-19
  0.566667327E-19
  0.610599537E-19
  0.670629832E-19
  0.721909809E-19
  0.711956916E-19
  0.599750272E-19
  0.408855266E-19
  0.217630678E-19
  0.884470959E-20
  0.270603050E-20
  0.617571575E-21
  0.104481710E-21
  0.130449973E-22
  0.119671443E-23
  0.797194250E-25
  0.000000000E+00
  0.000000000E+00
  0.000000000E+00
  0.000000000E+00
  0.000000000E+00
  0.000000000E+00
  0.000000000E+00
  0.000000000E+00
  0.000000000E+00
  0.000000000E+00
  0.000000000E+00
  0.000000000E+00
  0.000000000E+00
  0.000000000E+00
  0.000000000E+00
  0.000000000E+00
  0.000000000E+00
  0.000000000E+00
  0.000000000E+00
  0.000000000E+00
  0.000000000E+00
  0.000000000E+00
  0.000000000E+00
  0.562679534E-25
  0.100036452E-23
  0.119105410E-22
  0.103461077E-21
  0.659274937E-21
  0.309165671E-20
  0.107200816E-19
  0.276840281E-19
  0.538622609E-19
  0.804542510E-19
  0.951771759E-19
  0.936969253E-19
  0.822969306E-19
  0.695802747E-19
  0.597079354E-19
  0.528186348E-19
  0.478743506E-19
  0.440726738E-19
  0.409811648E-19
  0.383724825E-19
  0.361159493E-19
  0.341287335E-19
  0.323531617E-19
  0.307515670E-19
  0.292985343E-19
  0.279887226E-19
  0.268531784E-19
  0.259358733E-19
  0.252417439E-19
  0.246763059E-19
  0.241057764E-19
  0.236501373E-19
  0.241400901E-19
  0.276581827E-19
  0.371629994E-19
  0.535308944E-19
  0.720896697E-19
  0.846778561E-19
  0.869862795E-19
  0.818613674E-19
  0.748174689E-19
  0.690277220E-19
  0.649734138E-19
  0.622254954E-19
  0.603375518E-19
  0.589225535E-19
  0.575926192E-19
  0.557075213E-19
  0.523066467E-19
  0.473359727E-19
  0.437127229E-19
  0.467068523E-19
  0.586012743E-19
  0.743404791E-19
  0.856592383E-19
  0.893399548E-19
  0.885609721E-19
  0.877001513E-19
  0.892107661E-19
  0.943305436E-19
  0.103523142E-18
  0.114317771E-18
  0.119022177E-18
  0.108726457E-18
  0.831766258E-19
  0.537033330E-19
  0.329477994E-19
  0.241534297E-19
  0.221892512E-19
  0.215359659E-19
  0.203315663E-19
  0.187254103E-19
  0.170887911E-19
  0.158413916E-19
  0.150408497E-19
  0.142981733E-19
  0.134982537E-19
  0.128602850E-19
  0.123617339E-19
  0.117336553E-19
  0.109833270E-19
  0.104023731E-19
  0.990375711E-20
  0.912216727E-20
  0.823700994E-20
  0.755200452E-20
  0.672319459E-20
  0.554156958E-20
  0.438947704E-20
  0.328322794E-20
  0.173904892E-20
 -0.369529482E-21
 -0.259504563E-20
 -0.414913543E-20
 -0.417434986E-20
 -0.245643837E-20
 -0.171057305E-21
  0.560867387E-21
 -0.149777870E-20
 -0.551627752E-20
 -0.976236933E-20
 -0.135495984E-19
 -0.174734442E-19
 -0.220279778E-19
 -0.269459639E-19
 -0.323306015E-19
 -0.390684986E-19
 -0.473735031E-19
 -0.567876184E-19
 -0.679505223E-19
 -0.108648273E-07
 -0.285330010E-06
 -0.389356929E-05
 -0.385418626E-04
 -0.279724869E-03
 -0.149241359E-02
 -0.588282491E-02
 -0.172743837E-01
 -0.383585824E-01
 -0.662411703E-01
 -0.934242601E-01
 -0.115266718E+00
 -0.132060105E+00
 -0.142564885E+00
 -0.142859071E+00
 -0.133113557E+00
 -0.119110511E+00
 -0.106464422E+00
 -0.970516106E-01
 -0.902856500E-01
 -0.851810679E-01
 -0.810946267E-01
 -0.776843777E-01
 -0.747638993E-01
 -0.722214543E-01
 -0.699846153E-01
 -0.680042248E-01
 -0.662462701E-01
 -0.646876575E-01
 -0.633139773E-01
 -0.621186122E-01
 -0.611028286E-01
 -0.602769133E-01
 -0.596629402E-01
 -0.593008074E-01
 -0.592622083E-01
 -0.596832210E-01
 -0.608205720E-01
 -0.630492574E-01
 -0.665090898E-01
 -0.702289931E-01
 -0.717607092E-01
 -0.690592000E-01
 -0.631450041E-01
 -0.568618998E-01
 -0.503959805E-01
 -0.409798257E-01
 -0.279900929E-01
 -0.150974394E-01
 -0.621488559E-02
 -0.191744506E-02
 -0.438924448E-03
 -0.741021290E-04
 -0.932938881E-05
 -0.262717529E-05
 -0.167355276E-04
 -0.113700675E-03
 -0.570370360E-03
 -0.211565644E-02
 -0.584439921E-02
 -0.121611849E-01
 -0.194179996E-01
 -0.245286397E-01
 -0.257288743E-01
 -0.239955590E-01
 -0.214519351E-01
 -0.193981872E-01
 -0.180549041E-01
 -0.172580889E-01
 -0.170678964E-01
 -0.183689243E-01
 -0.234981733E-01
 -0.353026263E-01
 -0.528812995E-01
 -0.681195701E-01
 -0.711432843E-01
 -0.608563827E-01
 -0.456269405E-01
 -0.335424375E-01
 -0.265193160E-01
 -0.227577801E-01
 -0.205296066E-01
 -0.192209880E-01
</data>
</orbital>
<orbital 
 index="                        3" 
 atom_index="                        1" 
 species="H" 
 Z="                        1" 
 position="  14.016261   4.984600  47.243172" 
 n="                        2" 
 l="                        1" 
 m="                       -1" 
 z="                        1" 
 P="true" 
>
<data>
  0.237320822E-02
  0.242856707E-02
  0.219879164E-02
  0.173993842E-02
  0.126592790E-02
  0.958497870E-03
  0.846104190E-03
  0.865890379E-03
  0.961358357E-03
  0.109014014E-02
  0.117744875E-02
  0.112156577E-02
  0.884995473E-03
  0.556833106E-03
  0.277315777E-03
  0.116339691E-03
  0.527614103E-04
  0.367876839E-04
  0.390353479E-04
  0.550549342E-04
  0.886669406E-04
  0.140966015E-03
  0.211007887E-03
  0.296223473E-03
  0.389052506E-03
  0.479471567E-03
  0.561532756E-03
  0.633268227E-03
  0.694286752E-03
  0.747626970E-03
  0.798061642E-03
  0.846508736E-03
  0.892070258E-03
  0.937271337E-03
  0.984545320E-03
  0.103295723E-02
  0.108410400E-02
  0.114234046E-02
  0.120386490E-02
  0.125605556E-02
  0.129345631E-02
  0.132442841E-02
  0.135136566E-02
  0.135063648E-02
  0.129688382E-02
  0.121627311E-02
  0.118628158E-02
  0.126989882E-02
  0.147272731E-02
  0.175824418E-02
  0.207415838E-02
  0.234741903E-02
  0.245699845E-02
  0.227772034E-02
  0.182354422E-02
  0.129248933E-02
  0.895907045E-03
  0.693485076E-03
  0.621774820E-03
  0.605442139E-03
  0.605487081E-03
  0.608904647E-03
  0.612885183E-03
  0.616603143E-03
  0.613238012E-03
  0.586691399E-03
  0.525243030E-03
  0.450258946E-03
  0.426631491E-03
  0.517353754E-03
  0.709005838E-03
  0.902800949E-03
  0.100614227E-02
  0.101503194E-02
  0.988925923E-03
  0.978872423E-03
  0.100078340E-02
  0.104884999E-02
  0.110974112E-02
  0.117117262E-02
  0.123138592E-02
  0.129969543E-02
  0.139109166E-02
  0.153039798E-02
  0.174099565E-02
  0.200008685E-02
  0.221399527E-02
  0.226035818E-02
  0.207340912E-02
  0.170899079E-02
  0.131724649E-02
  0.102869515E-02
  0.876061235E-03
  0.823778159E-03
  0.834188689E-03
  0.897459718E-03
  0.102623357E-02
  0.122450112E-02
  0.145415025E-02
  0.164622851E-02
  0.174480640E-02