<pdos>
<nspin>1</nspin>
<norbitals>26</norbitals>
<fermi_energy units="eV"> -0.353664427E+01</fermi_energy>
<energy_values units="eV">
 -0.149999840E+02
 -0.149599039E+02
 -0.149198237E+02
 -0.148797436E+02
 -0.148396635E+02
 -0.147995834E+02
 -0.147595033E+02
 -0.147194231E+02
 -0.146793430E+02
 -0.146392629E+02
 -0.145991828E+02
 -0.145591027E+02
 -0.145190226E+02
 -0.144789424E+02
 -0.144388623E+02
 -0.143987822E+02
 -0.143587021E+02
 -0.143186220E+02
 -0.142785419E+02
 -0.142384617E+02
 -0.141983816E+02
 -0.141583015E+02
 -0.141182214E+02
 -0.140781413E+02
 -0.140380611E+02
 -0.139979810E+02
 -0.139579009E+02
 -0.139178208E+02
 -0.138777407E+02
 -0.138376606E+02
 -0.137975804E+02
 -0.137575003E+02
 -0.137174202E+02
 -0.136773401E+02
 -0.136372600E+02
 -0.135971799E+02
 -0.135570997E+02
 -0.135170196E+02
 -0.134769395E+02
 -0.134368594E+02
 -0.133967793E+02
 -0.133566992E+02
 -0.133166190E+02
 -0.132765389E+02
 -0.132364588E+02
 -0.131963787E+02
 -0.131562986E+02
 -0.131162184E+02
 -0.130761383E+02
 -0.130360582E+02
 -0.129959781E+02
 -0.129558980E+02
 -0.129158179E+02
 -0.128757377E+02
 -0.128356576E+02
 -0.127955775E+02
 -0.127554974E+02
 -0.127154173E+02
 -0.126753372E+02
 -0.126352570E+02
 -0.125951769E+02
 -0.125550968E+02
 -0.125150167E+02
 -0.124749366E+02
 -0.124348564E+02
 -0.123947763E+02
 -0.123546962E+02
 -0.123146161E+02
 -0.122745360E+02
 -0.122344559E+02
 -0.121943757E+02
 -0.121542956E+02
 -0.121142155E+02
 -0.120741354E+02
 -0.120340553E+02
 -0.119939752E+02
 -0.119538950E+02
 -0.119138149E+02
 -0.118737348E+02
 -0.118336547E+02
 -0.117935746E+02
 -0.117534945E+02
 -0.117134143E+02
 -0.116733342E+02
 -0.116332541E+02
 -0.115931740E+02
 -0.115530939E+02
 -0.115130137E+02
 -0.114729336E+02
 -0.114328535E+02
 -0.113927734E+02
 -0.113526933E+02
 -0.113126132E+02
 -0.112725330E+02
 -0.112324529E+02
 -0.111923728E+02
 -0.111522927E+02
 -0.111122126E+02
 -0.110721325E+02
 -0.110320523E+02
 -0.109919722E+02
 -0.109518921E+02
 -0.109118120E+02
 -0.108717319E+02
 -0.108316518E+02
 -0.107915716E+02
 -0.107514915E+02
 -0.107114114E+02
 -0.106713313E+02
 -0.106312512E+02
 -0.105911710E+02
 -0.105510909E+02
 -0.105110108E+02
 -0.104709307E+02
 -0.104308506E+02
 -0.103907705E+02
 -0.103506903E+02
 -0.103106102E+02
 -0.102705301E+02
 -0.102304500E+02
 -0.101903699E+02
 -0.101502898E+02
 -0.101102096E+02
 -0.100701295E+02
 -0.100300494E+02
 -0.998996928E+01
 -0.994988917E+01
 -0.990980905E+01
 -0.986972893E+01
 -0.982964881E+01
 -0.978956870E+01
 -0.974948858E+01
 -0.970940846E+01
 -0.966932834E+01
 -0.962924823E+01
 -0.958916811E+01
 -0.954908799E+01
 -0.950900787E+01
 -0.946892776E+01
 -0.942884764E+01
 -0.938876752E+01
 -0.934868740E+01
 -0.930860729E+01
 -0.926852717E+01
 -0.922844705E+01
 -0.918836693E+01
 -0.914828682E+01
 -0.910820670E+01
 -0.906812658E+01
 -0.902804646E+01
 -0.898796635E+01
 -0.894788623E+01
 -0.890780611E+01
 -0.886772599E+01
 -0.882764588E+01
 -0.878756576E+01
 -0.874748564E+01
 -0.870740552E+01
 -0.866732541E+01
 -0.862724529E+01
 -0.858716517E+01
 -0.854708505E+01
 -0.850700494E+01
 -0.846692482E+01
 -0.842684470E+01
 -0.838676458E+01
 -0.834668447E+01
 -0.830660435E+01
 -0.826652423E+01
 -0.822644411E+01
 -0.818636400E+01
 -0.814628388E+01
 -0.810620376E+01
 -0.806612364E+01
 -0.802604353E+01
 -0.798596341E+01
 -0.794588329E+01
 -0.790580317E+01
 -0.786572306E+01
 -0.782564294E+01
 -0.778556282E+01
 -0.774548270E+01
 -0.770540259E+01
 -0.766532247E+01
 -0.762524235E+01
 -0.758516223E+01
 -0.754508212E+01
 -0.750500200E+01
 -0.746492188E+01
 -0.742484176E+01
 -0.738476165E+01
 -0.734468153E+01
 -0.730460141E+01
 -0.726452129E+01
 -0.722444118E+01
 -0.718436106E+01
 -0.714428094E+01
 -0.710420082E+01
 -0.706412071E+01
 -0.702404059E+01
 -0.698396047E+01
 -0.694388035E+01
 -0.690380024E+01
 -0.686372012E+01
 -0.682364000E+01
 -0.678355988E+01
 -0.674347977E+01
 -0.670339965E+01
 -0.666331953E+01
 -0.662323941E+01
 -0.658315930E+01
 -0.654307918E+01
 -0.650299906E+01
 -0.646291894E+01
 -0.642283883E+01
 -0.638275871E+01
 -0.634267859E+01
 -0.630259847E+01
 -0.626251836E+01
 -0.622243824E+01
 -0.618235812E+01
 -0.614227800E+01
 -0.610219789E+01
 -0.606211777E+01
 -0.602203765E+01
 -0.598195753E+01
 -0.594187742E+01
 -0.590179730E+01
 -0.586171718E+01
 -0.582163706E+01
 -0.578155695E+01
 -0.574147683E+01
 -0.570139671E+01
 -0.566131659E+01
 -0.562123648E+01
 -0.558115636E+01
 -0.554107624E+01
 -0.550099612E+01
 -0.546091601E+01
 -0.542083589E+01
 -0.538075577E+01
 -0.534067565E+01
 -0.530059554E+01
 -0.526051542E+01
 -0.522043530E+01
 -0.518035518E+01
 -0.514027507E+01
 -0.510019495E+01
 -0.506011483E+01
 -0.502003471E+01
 -0.497995460E+01
 -0.493987448E+01
 -0.489979436E+01
 -0.485971425E+01
 -0.481963413E+01
 -0.477955401E+01
 -0.473947389E+01
 -0.469939378E+01
 -0.465931366E+01
 -0.461923354E+01
 -0.457915342E+01
 -0.453907331E+01
 -0.449899319E+01
 -0.445891307E+01
 -0.441883295E+01
 -0.437875284E+01
 -0.433867272E+01
 -0.429859260E+01
 -0.425851248E+01
 -0.421843237E+01
 -0.417835225E+01
 -0.413827213E+01
 -0.409819201E+01
 -0.405811190E+01
 -0.401803178E+01
 -0.397795166E+01
 -0.393787154E+01
 -0.389779143E+01
 -0.385771131E+01
 -0.381763119E+01
 -0.377755107E+01
 -0.373747096E+01
 -0.369739084E+01
 -0.365731072E+01
 -0.361723060E+01
 -0.357715049E+01
 -0.353707037E+01
 -0.349699025E+01
 -0.345691013E+01
 -0.341683002E+01
 -0.337674990E+01
 -0.333666978E+01
 -0.329658966E+01
 -0.325650955E+01
 -0.321642943E+01
 -0.317634931E+01
 -0.313626919E+01
 -0.309618908E+01
 -0.305610896E+01
 -0.301602884E+01
 -0.297594872E+01
 -0.293586861E+01
 -0.289578849E+01
 -0.285570837E+01
 -0.281562825E+01
 -0.277554814E+01
 -0.273546802E+01
 -0.269538790E+01
 -0.265530778E+01
 -0.261522767E+01
 -0.257514755E+01
 -0.253506743E+01
 -0.249498731E+01
 -0.245490720E+01
 -0.241482708E+01
 -0.237474696E+01
 -0.233466684E+01
 -0.229458673E+01
 -0.225450661E+01
 -0.221442649E+01
 -0.217434637E+01
 -0.213426626E+01
 -0.209418614E+01
 -0.205410602E+01
 -0.201402590E+01
 -0.197394579E+01
 -0.193386567E+01
 -0.189378555E+01
 -0.185370543E+01
 -0.181362532E+01
 -0.177354520E+01
 -0.173346508E+01
 -0.169338496E+01
 -0.165330485E+01
 -0.161322473E+01
 -0.157314461E+01
 -0.153306449E+01
 -0.149298438E+01
 -0.145290426E+01
 -0.141282414E+01
 -0.137274402E+01
 -0.133266391E+01
 -0.129258379E+01
 -0.125250367E+01
 -0.121242355E+01
 -0.117234344E+01
 -0.113226332E+01
 -0.109218320E+01
 -0.105210308E+01
 -0.101202297E+01
 -0.971942849E+00
 -0.931862732E+00
 -0.891782614E+00
 -0.851702497E+00
 -0.811622379E+00
 -0.771542262E+00
 -0.731462144E+00
 -0.691382027E+00
 -0.651301909E+00
 -0.611221792E+00
 -0.571141674E+00
 -0.531061557E+00
 -0.490981439E+00
 -0.450901322E+00
 -0.410821204E+00
 -0.370741087E+00
 -0.330660969E+00
 -0.290580852E+00
 -0.250500734E+00
 -0.210420617E+00
 -0.170340499E+00
 -0.130260382E+00
 -0.901802643E-01
 -0.501001469E-01
 -0.100200294E-01
  0.300600881E-01
  0.701402056E-01
  0.110220323E+00
  0.150300441E+00
  0.190380558E+00
  0.230460676E+00
  0.270540793E+00
  0.310620911E+00
  0.350701028E+00
  0.390781145E+00
  0.430861263E+00
  0.470941380E+00
  0.511021498E+00
  0.551101615E+00
  0.591181733E+00
  0.631261850E+00
  0.671341968E+00
  0.711422085E+00
  0.751502203E+00
  0.791582320E+00
  0.831662438E+00
  0.871742555E+00
  0.911822673E+00
  0.951902790E+00
  0.991982908E+00
  0.103206303E+01
  0.107214314E+01
  0.111222326E+01
  0.115230338E+01
  0.119238350E+01
  0.123246361E+01
  0.127254373E+01
  0.131262385E+01
  0.135270397E+01
  0.139278408E+01
  0.143286420E+01
  0.147294432E+01
  0.151302444E+01
  0.155310455E+01
  0.159318467E+01
  0.163326479E+01
  0.167334490E+01
  0.171342502E+01
  0.175350514E+01
  0.179358526E+01
  0.183366537E+01
  0.187374549E+01
  0.191382561E+01
  0.195390573E+01
  0.199398584E+01
  0.203406596E+01
  0.207414608E+01
  0.211422620E+01
  0.215430631E+01
  0.219438643E+01
  0.223446655E+01
  0.227454667E+01
  0.231462678E+01
  0.235470690E+01
  0.239478702E+01
  0.243486714E+01
  0.247494725E+01
  0.251502737E+01
  0.255510749E+01
  0.259518761E+01
  0.263526772E+01
  0.267534784E+01
  0.271542796E+01
  0.275550808E+01
  0.279558819E+01
  0.283566831E+01
  0.287574843E+01
  0.291582855E+01
  0.295590866E+01
  0.299598878E+01
  0.303606890E+01
  0.307614902E+01
  0.311622913E+01
  0.315630925E+01
  0.319638937E+01
  0.323646949E+01
  0.327654960E+01
  0.331662972E+01
  0.335670984E+01
  0.339678996E+01
  0.343687007E+01
  0.347695019E+01
  0.351703031E+01
  0.355711043E+01
  0.359719054E+01
  0.363727066E+01
  0.367735078E+01
  0.371743090E+01
  0.375751101E+01
  0.379759113E+01
  0.383767125E+01
  0.387775137E+01
  0.391783148E+01
  0.395791160E+01
  0.399799172E+01
  0.403807184E+01
  0.407815195E+01
  0.411823207E+01
  0.415831219E+01
  0.419839231E+01
  0.423847242E+01
  0.427855254E+01
  0.431863266E+01
  0.435871278E+01
  0.439879289E+01
  0.443887301E+01
  0.447895313E+01
  0.451903325E+01
  0.455911336E+01
  0.459919348E+01
  0.463927360E+01
  0.467935372E+01
  0.471943383E+01
  0.475951395E+01
  0.479959407E+01
  0.483967419E+01
  0.487975430E+01
  0.491983442E+01
  0.495991454E+01
  0.499999466E+01
</energy_values>
<orbital 
 index="                        1" 
 atom_index="                        1" 
 species="C" 
 Z="                        6" 
 position="   0.000000   0.000000   0.000000" 
 n="                        2" 
 l="                        0" 
 m="                        0" 
 z="                        1" 
 P="false" 
>
<data>
  0.128335789E-01
  0.126475559E-01
  0.124708098E-01
  0.122497505E-01
  0.120319724E-01
  0.118677555E-01
  0.117051862E-01
  0.114934956E-01
  0.112890376E-01
  0.111417245E-01
  0.109909488E-01
  0.107910270E-01
  0.106000694E-01
  0.104588495E-01
  0.103189852E-01
  0.101399551E-01
  0.995776266E-02
  0.981529879E-02
  0.968605960E-02
  0.952848344E-02
  0.936162753E-02
  0.921679640E-02
  0.908636090E-02
  0.896244824E-02
  0.884381399E-02
  0.872134820E-02
  0.861475076E-02
  0.855154349E-02
  0.849772716E-02
  0.840366816E-02
  0.829244363E-02
  0.822105252E-02
  0.818679708E-02
  0.812508803E-02
  0.800570949E-02
  0.789549823E-02
  0.785835538E-02
  0.783331635E-02
  0.773389919E-02
  0.760658472E-02
  0.753898723E-02
  0.750451139E-02
  0.743838022E-02
  0.735007869E-02
  0.726595351E-02
  0.718145464E-02
  0.710875871E-02
  0.706198368E-02
  0.700689505E-02
  0.691311113E-02
  0.681201454E-02
  0.674458736E-02
  0.670166055E-02
  0.664545747E-02
  0.655758266E-02
  0.646280240E-02
  0.640066191E-02
  0.635642618E-02
  0.627841706E-02
  0.618138088E-02
  0.612732174E-02
  0.609747221E-02
  0.601338359E-02
  0.589219827E-02
  0.582938594E-02
  0.581689669E-02
  0.575911772E-02
  0.565565258E-02
  0.557771475E-02
  0.552008077E-02
  0.544356121E-02
  0.538185963E-02
  0.536225475E-02
  0.530841577E-02
  0.517277061E-02
  0.506094587E-02
  0.505889364E-02
  0.506979248E-02
  0.497961435E-02
  0.484225980E-02
  0.476698284E-02
  0.474391891E-02
  0.470234010E-02
  0.464050868E-02
  0.457976795E-02
  0.449544633E-02
  0.439367370E-02
  0.434015049E-02
  0.434000441E-02
  0.430254587E-02
  0.418650978E-02
  0.407590529E-02
  0.404030742E-02
  0.402648238E-02
  0.396610481E-02
  0.388098590E-02
  0.381498147E-02
  0.375594818E-02
  0.368373372E-02
  0.362483933E-02
  0.359492415E-02
  0.354932618E-02
  0.345750095E-02
  0.336284496E-02
  0.331294924E-02
  0.328899111E-02
  0.324345354E-02
  0.316585856E-02
  0.308105997E-02
  0.300854357E-02
  0.295463471E-02
  0.291882417E-02
  0.287763711E-02
  0.279995203E-02
  0.269847611E-02
  0.262267281E-02
  0.258954432E-02
  0.255793097E-02
  0.248555713E-02
  0.238569554E-02
  0.229959168E-02
  0.223773985E-02
  0.218317662E-02
  0.211990265E-02
  0.203381197E-02
  0.192181219E-02
  0.180806713E-02
  0.172225636E-02
  0.166090814E-02
  0.159168922E-02
  0.150089294E-02
  0.141231560E-02
  0.134832246E-02
  0.130364633E-02
  0.126413678E-02
  0.121964886E-02
  0.116255996E-02
  0.109814439E-02
  0.104705539E-02
  0.102072129E-02
  0.100153777E-02
  0.963351275E-03
  0.907609661E-03
  0.858875835E-03
  0.830381761E-03
  0.814013467E-03
  0.793685549E-03
  0.758197042E-03
  0.712742366E-03
  0.676705367E-03
  0.660509163E-03
  0.650791937E-03
  0.627556405E-03
  0.590909516E-03
  0.558069636E-03
  0.538348445E-03
  0.526296360E-03
  0.512373308E-03
  0.490075443E-03
  0.461437385E-03
  0.437118566E-03
  0.423895872E-03
  0.415531367E-03
  0.400973189E-03
  0.378180823E-03
  0.355324182E-03
  0.340505136E-03
  0.333209070E-03
  0.324215450E-03
  0.306449225E-03
  0.285643446E-03
  0.272279965E-03
  0.266086024E-03
  0.257872076E-03
  0.243327306E-03
  0.227413096E-03
  0.216174841E-03
  0.209272987E-03
  0.201598941E-03
  0.190224199E-03
  0.177766239E-03
  0.168277971E-03
  0.161866330E-03
  0.154869351E-03
  0.145088026E-03
  0.135125350E-03
  0.128075093E-03
  0.122409354E-03
  0.115098005E-03
  0.106755250E-03
  0.998096944E-04
  0.942287453E-04
  0.882240088E-04
  0.815228972E-04
  0.753693333E-04
  0.700601818E-04
  0.647147829E-04
  0.591210872E-04
  0.538702529E-04
  0.490123378E-04
  0.441667275E-04
  0.393754837E-04
  0.348130266E-04
  0.303941767E-04
  0.260554608E-04
  0.218393598E-04
  0.177460908E-04
  0.137773699E-04
  0.100128659E-04
  0.662487894E-05
  0.385832906E-05
  0.191006070E-05
  0.778252651E-06
  0.253962890E-06
  0.649495203E-07
  0.128026696E-07
  0.192095788E-08
  0.216989431E-09
  0.182099270E-10
  0.103309546E-11
  0.875076135E-14
 -0.131547972E-24
 -0.126345680E-24
 -0.125169441E-24
 -0.125318275E-24
 -0.121908809E-24
 -0.114425316E-24
 -0.107894371E-24
 -0.106845148E-24
 -0.109414986E-24
 -0.109253015E-24
 -0.104080704E-24
 -0.990187442E-25
 -0.991044130E-25
 -0.101854462E-24
 -0.100789527E-24
 -0.949182633E-25
 -0.898579640E-25
 -0.894845014E-25
 -0.910666253E-25
 -0.896132430E-25
 -0.846011142E-25
 -0.801200552E-25
 -0.790043838E-25
 -0.795290572E-25
 -0.781611045E-25
 -0.741305226E-25
 -0.700873917E-25
 -0.683440789E-25
 -0.680904375E-25
 -0.667873372E-25
 -0.634671006E-25
 -0.597846233E-25
 -0.576381767E-25
 -0.568055361E-25
 -0.554778182E-25
 -0.526640238E-25
 -0.493857176E-25
 -0.471246553E-25
 -0.458916624E-25
 -0.444551364E-25
 -0.419965181E-25
 -0.390893744E-25
 -0.368675799E-25
 -0.354816205E-25
 -0.339698813E-25
 -0.316852619E-25
 -0.291595999E-25
 -0.271860558E-25
 -0.257188434E-25
 -0.241441101E-25
 -0.221591157E-25
 -0.200515803E-25
 -0.182569667E-25
 -0.168252486E-25
 -0.153824662E-25
 -0.136439600E-25
 -0.118371896E-25
 -0.103552644E-25
 -0.915167225E-26
 -0.784764429E-26
 -0.634810937E-26
 -0.495735620E-26
 -0.386972932E-26
 -0.294145655E-26
 -0.205058746E-26
 -0.138032007E-26
 -0.121022577E-26
 -0.155550027E-26
 -0.213341575E-26
 -0.267623703E-26
 -0.317846156E-26
 -0.375568267E-26
 -0.434813735E-26
 -0.475846240E-26
 -0.495737435E-26
 -0.511528215E-26
 -0.531545846E-26
 -0.543830546E-26
 -0.536403745E-26
 -0.513089182E-26
 -0.484319633E-26
 -0.453250708E-26
 -0.413750354E-26
 -0.357786929E-26
 -0.284105580E-26
 -0.198682491E-26
 -0.107288456E-26
 -0.993676807E-28
  0.986963556E-27
  0.226703129E-26
  0.379757728E-26
  0.551220723E-26
  0.723182818E-26
  0.890487368E-26
  0.107835101E-25
  0.131931683E-25
  0.160579245E-25
  0.188352296E-25
  0.212203914E-25
  0.237671771E-25
  0.273430511E-25
  0.318484226E-25
  0.360363692E-25
  0.392779592E-25
  0.427569305E-25
  0.477916479E-25
  0.537073070E-25
  0.584506946E-25
  0.609455967E-25
  0.619525528E-25
  0.627235713E-25
  0.636272249E-25
  0.640553930E-25
  0.633916281E-25
  0.621360531E-25
  0.616147467E-25
  0.625011483E-25
  0.641033614E-25
  0.650145672E-25
  0.645400262E-25
  0.635443470E-25
  0.634466530E-25
  0.646503964E-25
  0.662223295E-25
  0.667606049E-25
  0.658500940E-25
  0.646441913E-25
  0.645334774E-25
  0.657129251E-25
  0.671250001E-25
  0.673506448E-25
  0.660665843E-25
  0.645652313E-25
  0.642604318E-25
  0.652863515E-25
  0.665807284E-25
  0.667000402E-25
  0.651949982E-25
  0.633173694E-25
  0.626230648E-25
  0.633780452E-25
  0.645742504E-25
  0.647514479E-25
  0.632386264E-25
  0.610272852E-25
  0.597514796E-25
  0.600368825E-25
  0.611456402E-25
  0.615597903E-25
  0.602193888E-25
  0.577640764E-25
  0.558717544E-25
  0.554638825E-25
  0.562092589E-25
  0.568957894E-25
  0.560981096E-25
  0.536574956E-25
  0.510884894E-25
  0.498347795E-25
  0.500046026E-25
  0.506935608E-25
  0.505123588E-25
  0.485706879E-25
  0.456528076E-25
  0.434348227E-25
  0.426846326E-25
  0.429852596E-25
  0.432383128E-25
  0.421570659E-25
  0.394743612E-25
  0.364769025E-25
  0.345920679E-25
  0.340998021E-25
  0.342978555E-25
  0.339411180E-25
  0.320185485E-25
  0.289446305E-25
  0.261624535E-25
  0.244992077E-25
  0.238524179E-25
  0.236706772E-25
  0.228648083E-25
  0.204940018E-25
  0.171237580E-25
  0.143260884E-25
  0.128271108E-25
  0.121248398E-25
  0.113667307E-25
  0.982278334E-26
  0.724030747E-26
  0.414460137E-26
  0.134229267E-26
 -0.669695023E-27
 -0.180556425E-26
 -0.268064012E-26
 -0.447225438E-26
 -0.754802988E-26
 -0.108421828E-25
 -0.133537917E-25
 -0.153079651E-25
 -0.172460898E-25
 -0.191496345E-25
 -0.210706343E-25
 -0.235505387E-25
 -0.267620842E-25
 -0.299952166E-25
 -0.324959731E-25
 -0.344118257E-25
 -0.365655865E-25
 -0.393358738E-25
 -0.422014200E-25
 -0.447318620E-25
 -0.473737509E-25
 -0.506219337E-25
 -0.540378401E-25
 -0.567904309E-25
 -0.589331963E-25
 -0.613813532E-25
 -0.644694406E-25
 -0.675654095E-25
 -0.704729893E-25
 -0.739130771E-25
 -0.779731219E-25
 -0.813093825E-25
 -0.830487007E-25
 -0.845252714E-25
 -0.875127732E-25
 -0.918214599E-25
 -0.961855841E-25
 -0.999833148E-25
 -0.103004946E-24
 -0.105047074E-24
 -0.106409719E-24
 -0.108140325E-24
 -0.111455909E-24
 -0.116580639E-24
 -0.121914138E-24
 -0.124926874E-24
 -0.124930906E-24
 -0.124310540E-24
 -0.125500436E-24
 -0.128502277E-24
 -0.132578839E-24
 -0.136922816E-24
 -0.139163550E-24
  0.194586342E-09
  0.148058890E-07
  0.224993134E-06
  0.245464836E-05
  0.197398148E-04
  0.117726387E-03
  0.524013829E-03
  0.175639056E-02
  0.449104529E-02
  0.892906128E-02
  0.141909695E-01
  0.187334394E-01
  0.215595027E-01
  0.227834813E-01
  0.230841879E-01
  0.230076077E-01
  0.228242105E-01
  0.226533754E-01
  0.224818153E-01
  0.222419075E-01
  0.219898780E-01
  0.218383834E-01
  0.217246049E-01
  0.214844622E-01
  0.211468003E-01
  0.209251049E-01
  0.208936135E-01
  0.208621286E-01
  0.206654440E-01
  0.204359259E-01
  0.204444035E-01
  0.206889663E-01
  0.207322711E-01
  0.200936611E-01
</data>
</orbital>
<orbital 
 index="                        2" 
 atom_index="                        1" 
 species="C" 
 Z="                        6" 
 position="   0.000000   0.000000   0.000000" 
 n="                        2" 
 l="                        0" 
 m="                        0" 
 z="                        2" 
 P="false" 
>
<data>
  0.176678414E-01
  0.174884130E-01
  0.173205993E-01
  0.170897159E-01
  0.168632776E-01
  0.167104992E-01
  0.165556820E-01
  0.163307751E-01
  0.161192979E-01
  0.159860441E-01
  0.158402466E-01
  0.156245246E-01
  0.154279270E-01
  0.152996733E-01
  0.151617942E-01
  0.149670481E-01
  0.147787017E-01
  0.146454757E-01
  0.145154339E-01
  0.143430407E-01
  0.141710581E-01
  0.140305276E-01
  0.138942259E-01
  0.137637725E-01
  0.136553612E-01
  0.135458369E-01
  0.134457713E-01
  0.134034656E-01
  0.133873040E-01
  0.133178807E-01
  0.132123825E-01
  0.131605498E-01
  0.131718315E-01
  0.131443729E-01
  0.130239437E-01
  0.129179513E-01
  0.129271067E-01
  0.129488183E-01
  0.128507209E-01
  0.127186885E-01
  0.126868640E-01
  0.126942641E-01
  0.126386609E-01
  0.125585643E-01
  0.125018771E-01
  0.124371336E-01
  0.123713016E-01
  0.123476776E-01
  0.123274141E-01
  0.122464557E-01
  0.121401310E-01
  0.120857563E-01
  0.120795467E-01
  0.120491251E-01
  0.119573991E-01
  0.118596849E-01
  0.118273738E-01
  0.118163228E-01
  0.117313187E-01
  0.116196118E-01
  0.115988644E-01
  0.116147879E-01
  0.115187726E-01
  0.113625330E-01
  0.113238956E-01
  0.113634663E-01
  0.113026901E-01
  0.111727604E-01
  0.111148086E-01
  0.110817609E-01
  0.109787696E-01
  0.109042102E-01
  0.109419544E-01
  0.109228924E-01
  0.107221309E-01
  0.105539725E-01
  0.106102622E-01
  0.106963288E-01
  0.105746312E-01
  0.103637802E-01
  0.102899138E-01
  0.103108316E-01
  0.102682899E-01
  0.101842671E-01
  0.101315207E-01
  0.100430902E-01
  0.989473935E-02
  0.982296534E-02
  0.986801481E-02
  0.985226546E-02
  0.967870775E-02
  0.951112196E-02
  0.948859979E-02
  0.950084137E-02
  0.941762456E-02
  0.929989659E-02
  0.923022007E-02
  0.915315003E-02
  0.902806653E-02
  0.894927599E-02
  0.895635354E-02
  0.891386740E-02
  0.874197434E-02
  0.857179734E-02
  0.852983710E-02
  0.854286263E-02
  0.847357784E-02
  0.832295867E-02
  0.818588271E-02
  0.809369473E-02
  0.802229087E-02
  0.796877930E-02
  0.790668259E-02
  0.777685843E-02
  0.760029602E-02
  0.747867521E-02
  0.744213669E-02
  0.739686636E-02
  0.726221386E-02
  0.708444753E-02
  0.694487097E-02
  0.683914832E-02
  0.673414657E-02
  0.662841024E-02
  0.649439037E-02
  0.629079409E-02
  0.605901288E-02
  0.589494424E-02
  0.580844715E-02
  0.569913014E-02
  0.550747918E-02
  0.530231848E-02
  0.516479642E-02
  0.508570404E-02
  0.501355862E-02
  0.491074555E-02
  0.476284111E-02
  0.459992458E-02
  0.448537850E-02
  0.443681535E-02
  0.438678503E-02
  0.426931585E-02
  0.411523860E-02
  0.399843722E-02
  0.392973984E-02
  0.387178085E-02
  0.379924584E-02
  0.369942680E-02
  0.357543962E-02
  0.346432937E-02
  0.340151046E-02
  0.336447724E-02
  0.329471374E-02
  0.317915963E-02
  0.306363792E-02
  0.298631096E-02
  0.294277832E-02
  0.289874675E-02
  0.281615677E-02
  0.269987935E-02
  0.260435377E-02
  0.255996607E-02
  0.252777133E-02
  0.245784473E-02
  0.235680446E-02
  0.226728011E-02
  0.221042795E-02
  0.217143451E-02
  0.211880063E-02
  0.203722365E-02
  0.194964754E-02
  0.188704041E-02
  0.184626507E-02
  0.179961840E-02
  0.173074720E-02
  0.165105541E-02
  0.158695849E-02
  0.154654775E-02
  0.150440161E-02
  0.143835263E-02
  0.136510591E-02
  0.131129877E-02
  0.127206743E-02
  0.122398786E-02
  0.116139759E-02
  0.110097435E-02
  0.105447827E-02
  0.101244992E-02
  0.961417195E-03
  0.904827763E-03
  0.855203239E-03
  0.812887968E-03
  0.767276945E-03
  0.716562709E-03
  0.669142815E-03
  0.626620170E-03
  0.582802459E-03
  0.536895977E-03
  0.493120293E-03
  0.451422105E-03
  0.409225081E-03
  0.367111576E-03
  0.326319073E-03
  0.286189418E-03
  0.246364458E-03
  0.207249337E-03
  0.168890641E-03
  0.131416698E-03
  0.956701431E-04
  0.633710787E-04
  0.369334775E-04
  0.182913422E-04
  0.745431355E-05
  0.243270383E-05
  0.622148031E-06
  0.122631126E-06
  0.183985496E-07
  0.207825721E-08
  0.174380431E-09
  0.988966329E-11
  0.835873333E-13
  0.114143867E-24
  0.111779074E-24
  0.112881833E-24
  0.115685231E-24
  0.116595296E-24
  0.114638314E-24
  0.112220696E-24
  0.111459096E-24
  0.110931575E-24
  0.107052949E-24
  0.993885095E-25
  0.924927139E-25
  0.903033816E-25
  0.907005635E-25
  0.884752161E-25
  0.827871444E-25
  0.779307491E-25
  0.767950771E-25
  0.772021496E-25
  0.753458658E-25
  0.708834716E-25
  0.669280283E-25
  0.655729586E-25
  0.654669693E-25
  0.639508946E-25
  0.604816593E-25
  0.570660949E-25
  0.554167294E-25
  0.548945207E-25
  0.535893463E-25
  0.507957315E-25
  0.477698856E-25
  0.459262502E-25
  0.450813618E-25
  0.438718028E-25
  0.415601965E-25
  0.389234678E-25
  0.370710894E-25
  0.359975906E-25
  0.347745375E-25
  0.327935029E-25
  0.304882098E-25
  0.287104143E-25
  0.275707275E-25
  0.263394430E-25
  0.245292779E-25
  0.225493239E-25
  0.209989619E-25
  0.198350483E-25
  0.185907268E-25
  0.170417215E-25
  0.154065738E-25
  0.140112094E-25
  0.128932247E-25
  0.117720525E-25
  0.104318413E-25
  0.904268223E-26
  0.790201926E-26
  0.697520950E-26
  0.597447576E-26
  0.482665233E-26
  0.376288165E-26
  0.293197649E-26
  0.222543182E-26
  0.154943476E-26
  0.104016635E-26
  0.906963689E-27
  0.116060913E-26
  0.158802499E-26
  0.198685711E-26
  0.235075503E-26
  0.276490497E-26
  0.318532450E-26
  0.346524701E-26
  0.358084410E-26
  0.365638067E-26
  0.375389784E-26
  0.378606889E-26
  0.366333032E-26
  0.341158480E-26
  0.310521576E-26
  0.276431643E-26
  0.234440343E-26
  0.179169352E-26
  0.109404305E-26
  0.279954314E-27
 -0.615208071E-27
 -0.157924052E-26
 -0.264204218E-26
 -0.387535184E-26
 -0.534590909E-26
 -0.701711517E-26
 -0.873842694E-26
 -0.104482092E-25
 -0.123520391E-25
 -0.147496488E-25
 -0.176175606E-25
 -0.205085718E-25
 -0.231318513E-25
 -0.259368712E-25
 -0.297057957E-25
 -0.344079839E-25
 -0.389469931E-25
 -0.426854436E-25
 -0.464937524E-25
 -0.510554921E-25
 -0.546177541E-25
 -0.535345404E-25
 -0.454452105E-25
 -0.322206492E-25
 -0.196062242E-25
 -0.128458228E-25
 -0.123484820E-25
 -0.146090495E-25
 -0.167446366E-25
 -0.184261174E-25
 -0.202066987E-25
 -0.219002508E-25
 -0.226637128E-25
 -0.221100157E-25
 -0.210132667E-25
 -0.205361377E-25
 -0.210183922E-25
 -0.217161087E-25
 -0.215347176E-25
 -0.201870156E-25
 -0.185637788E-25
 -0.177735677E-25
 -0.180103257E-25
 -0.183630215E-25
 -0.177234979E-25
 -0.159481827E-25
 -0.139547688E-25
 -0.128095185E-25
 -0.127984268E-25
 -0.129987098E-25
 -0.120904565E-25
 -0.995426953E-26
 -0.766759561E-26
 -0.611156297E-26
 -0.556083591E-26
 -0.560320811E-26
 -0.484535505E-26
 -0.242371129E-26
  0.461137690E-27
  0.229718569E-26
  0.317462835E-26
  0.376815556E-26
  0.456899608E-26
  0.645527755E-26
  0.969722999E-26
  0.127884166E-25
  0.142133323E-25
  0.145956921E-25
  0.156931284E-25
  0.180750134E-25
  0.210084150E-25
  0.239965977E-25
  0.268475087E-25
  0.287252033E-25
  0.293538966E-25
  0.306006915E-25
  0.341452960E-25
  0.385294126E-25
  0.414277171E-25
  0.432111587E-25
  0.453917148E-25
  0.477931964E-25
  0.499735695E-25
  0.530756699E-25
  0.577455546E-25
  0.621362470E-25
  0.643173055E-25
  0.654690896E-25
  0.683363689E-25
  0.730841794E-25
  0.773840075E-25
  0.805696064E-25
  0.843581808E-25
  0.888920076E-25
  0.920872380E-25
  0.940773309E-25
  0.979236067E-25
  0.104346578E-24
  0.110051924E-24
  0.113075791E-24
  0.115913052E-24
  0.121075954E-24
  0.126941245E-24
  0.131038070E-24
  0.134724896E-24
  0.140795531E-24
  0.148166883E-24
  0.153241519E-24
  0.156182943E-24
  0.161094131E-24
  0.169064040E-24
  0.176204368E-24
  0.180467953E-24
  0.185370293E-24
  0.193886263E-24
  0.202873986E-24
  0.208110784E-24
  0.211851986E-24
  0.219355980E-24
  0.229965155E-24
  0.238374251E-24
  0.243868907E-24
  0.251435493E-24
  0.262604086E-24
  0.272182731E-24
  0.277395126E-24
  0.283574149E-24
  0.295915358E-24
  0.310877959E-24
  0.321253880E-24
  0.327258571E-24
  0.336054845E-24
  0.349794520E-24
  0.362447042E-24
  0.371492636E-24
  0.383450073E-24
  0.402095026E-24
  0.419604904E-24
  0.428255067E-24
  0.434595755E-24
  0.450142367E-24
  0.473235679E-24
  0.493053477E-24
  0.507235590E-24
  0.523418296E-24
  0.544516243E-24
  0.563412383E-24
  0.576742769E-24
  0.594438627E-24
  0.625391028E-24
  0.660721985E-24
  0.684361587E-24
  0.697955108E-24
  0.719701390E-24
  0.755322146E-24
  0.790678563E-24
  0.820281572E-24
  0.857421948E-24
  0.905904880E-24
  0.232434504E-09
  0.176960189E-07
  0.268963781E-06
  0.293479602E-05
  0.236051913E-04
  0.140810873E-03
  0.626953959E-03
  0.210229214E-02
  0.537863934E-02
  0.107027987E-01
  0.170310778E-01
  0.225234430E-01
  0.259879015E-01
  0.275575109E-01
  0.280396393E-01
  0.280843006E-01
  0.280148922E-01
  0.279749312E-01
  0.279461444E-01
  0.278455756E-01
  0.277451313E-01
  0.277844907E-01
  0.278826138E-01
  0.278344350E-01
  0.276808258E-01
  0.276951721E-01
  0.279726606E-01
  0.282765261E-01
  0.284160208E-01
  0.285937902E-01
  0.291664553E-01
  0.300472435E-01
  0.304796180E-01
  0.296717039E-01
</data>
</orbital>
<orbital 
 index="                        3" 
 atom_index="                        1" 
 species="C" 
 Z="                        6" 
 position="   0.000000   0.000000   0.000000" 
 n="                        2" 
 l="                        1" 
 m="                       -1" 
 z="                        1" 
 P="false" 
>
<data>
  0.115496370E-01
  0.114554443E-01
  0.113764027E-01
  0.112312973E-01
  0.110902668E-01
  0.110251499E-01
  0.109525320E-01
  0.108080545E-01
  0.106869881E-01
  0.106430918E-01
  0.105704440E-01
  0.104296468E-01
  0.103293209E-01
  0.102937883E-01
  0.102192307E-01
  0.100907537E-01
  0.100047959E-01
  0.997052130E-02
  0.989598759E-02
  0.978514281E-02
  0.975038646E-02
  0.984338973E-02
  0.101168858E-01
  0.107637723E-01
  0.118583174E-01
  0.130835391E-01
  0.140339745E-01
  0.146149947E-01
  0.149346995E-01
  0.150621601E-01
  0.150636344E-01
  0.150662465E-01
  0.151427527E-01
  0.152198361E-01
  0.152080872E-01
  0.151806650E-01
  0.152560617E-01
  0.153558320E-01
  0.153496457E-01
  0.153307459E-01
  0.154144935E-01
  0.154847502E-01
  0.154643698E-01
  0.154962169E-01
  0.156137509E-01
  0.156501907E-01
  0.155994338E-01
  0.156425339E-01
  0.157838725E-01
  0.158460359E-01
  0.158089717E-01
  0.158228078E-01
  0.159284951E-01
  0.160171822E-01
  0.160279402E-01
  0.160424958E-01
  0.161379091E-01
  0.162253421E-01
  0.162137606E-01
  0.162231306E-01
  0.163705757E-01
  0.165060647E-01
  0.164618702E-01
  0.164085596E-01
  0.165743386E-01
  0.167704544E-01
  0.167329119E-01
  0.166705988E-01
  0.168477367E-01
  0.170344049E-01
  0.169728634E-01
  0.169201553E-01
  0.171557034E-01
  0.173874702E-01
  0.172874049E-01
  0.171718522E-01
  0.174148880E-01
  0.177175601E-01
  0.176866731E-01
  0.175581209E-01
  0.177142053E-01
  0.179943392E-01
  0.180531401E-01
  0.180065211E-01
  0.181410208E-01
  0.183463874E-01
  0.184060050E-01
  0.184440471E-01
  0.186181176E-01
  0.187884885E-01
  0.188372318E-01
  0.189228533E-01
  0.191364475E-01
  0.192943825E-01
  0.193261990E-01
  0.194522609E-01
  0.197405679E-01
  0.199241799E-01
  0.199121862E-01
  0.200186766E-01
  0.203825501E-01