Siesta Version  : 5.0.0-alpha-6-g46a0c9063
Architecture    : x86_64-unknown-linux-gnu--unknown
Compiler version: GNU Fortran (Ubuntu 10.2.0-13ubuntu1) 10.2.0
Compiler flags  : mpif90 -g -O2 -fallow-argument-mismatch
PP flags        : -DMPI -DFC_HAVE_FLUSH -DFC_HAVE_ABORT
Libraries       :  /usr/lib/x86_64-linux-gnu/libscalapack-openmpi.so  -L/usr/lib/x86_64-linux-ggnu -lblas -llapack -lblas
Directory       : /home/asier/Documents/master/tfm/siesta/Examples/Graphene/2_BAND_STRUCTURE
PARALLEL version

* Running on 4 nodes in parallel
>> Start of run:  26-MAY-2021  12:09:35

                           ***********************       
                           *  WELCOME TO SIESTA  *       
                           ***********************       

reinit: Reading from RUN.fdf

reinit: -----------------------------------------------------------------------
reinit: System Name: 
reinit: -----------------------------------------------------------------------
reinit: System Label: graphene
reinit: -----------------------------------------------------------------------

initatom: Reading input for the pseudopotentials and atomic orbitals ----------
Species number:   1 Atomic number:    6 Label: C

Ground state valence configuration:   2s02  2p02
Reading pseudopotential information in formatted form from C.psf

Pseudopotential generated from a relativistic atomic calculation

Valence configuration for pseudopotential generation:
2s( 2.00) rc: 1.25
2p( 2.00) rc: 1.25
3d( 0.00) rc: 1.98
4f( 0.00) rc: 1.98
For C, standard SIESTA heuristics set lmxkb to 3
 (one more than the basis l, including polarization orbitals).
Use PS.lmax or PS.KBprojectors blocks to override.

<basis_specs>
===============================================================================
C                    Z=   6    Mass=  12.010        Charge= 0.17977+309
Lmxo=1 Lmxkb= 3    BasisType=split      Semic=F
L=0  Nsemic=0  Cnfigmx=2
          i=1  nzeta=2  polorb=0  (2s)
            splnorm:   0.15000    
               vcte:    0.0000    
               rinn:    0.0000    
               qcoe:    0.0000    
               qyuk:    0.0000    
               qwid:   0.10000E-01
                rcs:    0.0000      0.0000    
            lambdas:    1.0000      1.0000    
L=1  Nsemic=0  Cnfigmx=2
          i=1  nzeta=2  polorb=1  (2p)
            splnorm:   0.15000    
               vcte:    0.0000    
               rinn:    0.0000    
               qcoe:    0.0000    
               qyuk:    0.0000    
               qwid:   0.10000E-01
                rcs:    0.0000      0.0000    
            lambdas:    1.0000      1.0000    
-------------------------------------------------------------------------------
L=0  Nkbl=1  erefs: 0.17977+309
L=1  Nkbl=1  erefs: 0.17977+309
L=2  Nkbl=1  erefs: 0.17977+309
L=3  Nkbl=1  erefs: 0.17977+309
===============================================================================
</basis_specs>

atom: Called for C                     (Z =   6)

read_vps: Pseudopotential generation method:
read_vps: ATM3      Troullier-Martins                       
Valence charge for ps generation:    4.00000

xc_check: Exchange-correlation functional:
xc_check: GGA Perdew, Burke & Ernzerhof 1996
V l=0 = -2*Zval/r beyond r=  1.5418
V l=1 = -2*Zval/r beyond r=  1.5418
V l=2 = -2*Zval/r beyond r=  1.9553
V l=3 = -2*Zval/r beyond r=  1.9310
All V_l potentials equal beyond r=  1.9310
This should be close to max(r_c) in ps generation
All pots = -2*Zval/r beyond r=  1.9553

VLOCAL1: 99.0% of the norm of Vloc inside     11.642 Ry
VLOCAL1: 99.9% of the norm of Vloc inside     26.531 Ry
atom: Maximum radius for 4*pi*r*r*local-pseudopot. charge    2.30035
atom: Maximum radius for r*vlocal+2*Zval:    2.00478

KBgen: Kleinman-Bylander projectors: 
GHOST: No ghost state for L =  0
   l= 0   rc=  2.134104   el= -1.010225   Ekb= 11.465766   kbcos=  0.116141
GHOST: No ghost state for L =  1
   l= 1   rc=  2.107589   el= -0.388560   Ekb= -6.457899   kbcos= -0.368830
GHOST: No ghost state for L =  2
   l= 2   rc=  2.300349   el=  0.001971   Ekb= -0.774314   kbcos= -0.017397
GHOST: No ghost state for L =  3
   l= 3   rc=  2.542323   el=  0.003065   Ekb= -0.308789   kbcos= -0.003148

KBgen: Total number of  Kleinman-Bylander projectors:   16
atom: -------------------------------------------------------------------------

atom: SANKEY-TYPE ORBITALS:
atom: Selected multiple-zeta basis: split     

SPLIT: Orbitals with angular momentum L= 0

SPLIT: Basis orbitals for state 2s

SPLIT: PAO cut-off radius determined from an
SPLIT: energy shift=  0.020000 Ry

   izeta = 1
                 lambda =    1.000000
                     rc =    4.088342
                 energy =   -0.989563
                kinetic =    0.944133
    potential(screened) =   -1.933696
       potential(ionic) =   -5.541314

   izeta = 2
                 rmatch =    3.347176
              splitnorm =    0.150000
                 energy =   -0.831414
                kinetic =    1.451472
    potential(screened) =   -2.282886
       potential(ionic) =   -6.119280

SPLIT: Orbitals with angular momentum L= 1

SPLIT: Basis orbitals for state 2p

SPLIT: PAO cut-off radius determined from an
SPLIT: energy shift=  0.020000 Ry

   izeta = 1
                 lambda =    1.000000
                     rc =    4.870301
                 energy =   -0.368749
                kinetic =    2.591962
    potential(screened) =   -2.960711
       potential(ionic) =   -6.464403

   izeta = 2
                 rmatch =    3.475094
              splitnorm =    0.150000
                 energy =   -0.206255
                kinetic =    3.888945
    potential(screened) =   -4.095199
       potential(ionic) =   -7.968192

POLgen: Perturbative polarization orbital with L=  2

POLgen: Polarization orbital for state 2p

   izeta = 1
                     rc =    4.870301
                 energy =    1.295231
                kinetic =    2.621946
    potential(screened) =   -1.326714
       potential(ionic) =   -4.277432
atom: Total number of Sankey-type orbitals: 13

atm_pop: Valence configuration (for local Pseudopot. screening):
 2s( 2.00)                                                            
 2p( 2.00)                                                            
Vna: chval, zval:    4.00000   4.00000

Vna:  Cut-off radius for the neutral-atom potential:   4.870301

atom: _________________________________________________________________________

prinput: Basis input ----------------------------------------------------------

PAO.BasisType split     

%block ChemicalSpeciesLabel
    1    6 C                       # Species index, atomic number, species label
%endblock ChemicalSpeciesLabel

%block PAO.Basis                 # Define Basis set
C                     2                    # Species label, number of l-shells
 n=2   0   2                         # n, l, Nzeta 
   4.088      3.347   
   1.000      1.000   
 n=2   1   2 P   1                   # n, l, Nzeta, Polarization, NzetaPol
   4.870      3.475   
   1.000      1.000   
%endblock PAO.Basis

prinput: ----------------------------------------------------------------------

coor:   Atomic-coordinates input format  =     Cartesian coordinates
coor:                                          (in Angstroms)

ioxv: Reading coordinates and velocities from file
! Info in XV file prevails over previous structure input

siesta: Atomic coordinates (Bohr) and species
siesta:      0.00000   0.00000   0.00000  1        1
siesta:      0.00000   2.69192   0.00000  1        2

siesta: System type = slab      

initatomlists: Number of atoms, orbitals, and projectors:      2    26    32

siesta: ******************** Simulation parameters ****************************
siesta:
siesta: The following are some of the parameters of the simulation.
siesta: A complete list of the parameters used, including default values,
siesta: can be found in file out.fdf
siesta:
redata: Spin configuration                          = none
redata: Number of spin components                   = 1
redata: Time-Reversal Symmetry                      = T
redata: Spin spiral                                 = F
redata: Long output                                 =   F
redata: Number of Atomic Species                    =        1
redata: Charge density info will appear in .RHO file
redata: Write Mulliken Pop.                         = NO
redata: Matel table size (NRTAB)                    =     1024
redata: Mesh Cutoff                                 =   300.0000 Ry
redata: Net charge of the system                    =     0.0000 |e|
redata: Min. number of SCF Iter                     =        0
redata: Max. number of SCF Iter                     =      200
redata: SCF convergence failure will abort job
redata: SCF mix quantity                            = Hamiltonian
redata: Mix DM or H after convergence               =   F
redata: Recompute H after scf cycle                 =   F
redata: Mix DM in first SCF step                    =   T
redata: Write Pulay info on disk                    =   F
redata: New DM Occupancy tolerance                  = 0.000000000001
redata: No kicks to SCF
redata: DM Mixing Weight for Kicks                  =     0.5000
redata: Require Harris convergence for SCF          =   F
redata: Harris energy tolerance for SCF             =     0.000100 eV
redata: Require DM convergence for SCF              =   T
redata: DM tolerance for SCF                        =     0.000100
redata: Require EDM convergence for SCF             =   F
redata: EDM tolerance for SCF                       =     0.001000 eV
redata: Require H convergence for SCF               =   T
redata: Hamiltonian tolerance for SCF               =     0.001000 eV
redata: Require (free) Energy convergence for SCF   =   F
redata: (free) Energy tolerance for SCF             =     0.000100 eV
redata: Using Saved Data (generic)                  =   F
redata: Use continuation files for DM               =   T
redata: Neglect nonoverlap interactions             =   F
redata: Method of Calculation                       = Diagonalization
redata: Electronic Temperature                      =   299.9869 K
redata: Fix the spin of the system                  =   F
redata: Max. number of TDED Iter                    =        1
redata: Number of TDED substeps                     =        3
redata: Dynamics option                             = Single-point calculation
mix.SCF: Pulay mixing                            = Pulay
mix.SCF:    Variant                              = stable
mix.SCF:    History steps                        = 5
mix.SCF:    Linear mixing weight                 =     0.250000
mix.SCF:    Mixing weight                        =     0.250000
mix.SCF:    SVD condition                        = 0.1000E-07
redata: ***********************************************************************

%block SCF.Mixers
  Pulay
%endblock SCF.Mixers

%block SCF.Mixer.Pulay
  # Mixing method
  method pulay
  variant stable

  # Mixing options
  weight 0.2500
  weight.linear 0.2500
  history 5
%endblock SCF.Mixer.Pulay

DM_history_depth set to one: no extrapolation allowed by default for geometry relaxation
Size of DM history Fstack: 1
Total number of electrons:     8.000000
Total ionic charge:     8.000000

* ProcessorY, Blocksize:    1   7


* Orbital distribution balance (max,min):     7     5

k-point displ. along   1 input, could be:     0.50    0.00
k-point displ. along   2 input, could be:     0.50    0.00
k-point displ. along   3 input, could be:     0.50    0.00
 Kpoints in:         3321 . Kpoints trimmed:         3321

siesta: k-grid: Number of k-points =      3321
siesta: k-points from Monkhorst-Pack grid
siesta: k-cutoff (effective) =    12.337 Ang
siesta: k-point supercell and displacements
siesta: k-grid:   81   0   0      0.500
siesta: k-grid:    0  81   0      0.500
siesta: k-grid:    0   0   1      0.500
k-point displ. along   1 input, could be:     0.50    0.00
k-point displ. along   2 input, could be:     0.50    0.00
k-point displ. along   3 input, could be:     0.50    0.00
 Kpoints in:         3321 . Kpoints trimmed:         3321

siesta: PDOS k-grid: Number of k-points =      3321
siesta: PDOS k-points from Monkhorst-Pack grid
siesta: PDOS k-cutoff (effective) =     0.000 Ang
siesta: PDOS k-point supercell and displacements
siesta: k-grid:   81   0   0      0.500
siesta: k-grid:    0  81   0      0.500
siesta: k-grid:    0   0   1      0.500

diag: Algorithm                                     = D&C
diag: Parallel over k                               =   F
diag: Use parallel 2D distribution                  =   T
diag: Parallel block-size                           = 7
diag: Parallel distribution                         =     2 x     2
diag: Used triangular part                          = Lower
diag: Absolute tolerance                            =  0.100E-15
diag: Orthogonalization factor                      =  0.100E-05
diag: Memory factor                                 =  1.0000
Using current reciprocal lattice vectors for BandLinesScale
Beware any cell changes by the end of the run
Using current reciprocal lattice vectors for BandLinesScale
Beware any cell changes by the end of the run

superc: Internal auxiliary supercell:     7 x     7 x     1  =      49
superc: Number of atoms, orbitals, and projectors:     98   1274   1568


ts: **************************************************************
ts: Save H and S matrices                           =    F
ts: Save DM and EDM matrices                        =    F
ts: Only save the overlap matrix S                  =    F
ts: **************************************************************

************************ Begin: TS CHECKS AND WARNINGS ************************
************************ End: TS CHECKS AND WARNINGS **************************


                     ====================================
                        Single-point calculation
                     ====================================

superc: Internal auxiliary supercell:     7 x     7 x     1  =      49
superc: Number of atoms, orbitals, and projectors:     98   1274   1568

outcell: Unit cell vectors (Ang):
        2.467400    0.000000    0.000000
       -1.233700    2.136831    0.000000
        0.000000    0.000000   24.674000

outcell: Cell vector modules (Ang)   :    2.467400    2.467400   24.674000
outcell: Cell angles (23,13,12) (deg):     90.0000     90.0000    120.0000
outcell: Cell volume (Ang**3)        :    130.0916
<dSpData1D:S at geom step 0
  <sparsity:sparsity for geom step 0
    nrows_g=26 nrows=7 sparsity=6.9822 nnzs=4720, refcount: 7>
  <dData1D:(new from dSpData1D) n=4720, refcount: 1>
refcount: 1>
new_DM -- step:     1
Initializing Density Matrix...

Attempting to read DM from file... Succeeded...
DM from file:
<dSpData2D:IO-DM: graphene.DM
  <sparsity:IO-DM: graphene.DM
    nrows_g=26 nrows=7 sparsity=6.9822 nnzs=4720, refcount: 1>
  <dData2D:(new from dSpData2D) n=4720 m=1, refcount: 1>
refcount: 1>
DM to be used:
<dSpData2D:Re-structured SpM
  <sparsity:sparsity for geom step 0
    nrows_g=26 nrows=7 sparsity=6.9822 nnzs=4720, refcount: 8>
  <dData2D:(new in restruct) n=4720 m=1, refcount: 1>
refcount: 1>
No. of atoms with KB's overlaping orbs in proc 0. Max # of overlaps:      19     217

InitMesh: MESH = 24 x 24 x 270 = 155520
InitMesh: Mesh cutoff (required, used) =   300.000   330.941 Ry
New grid distribution [1]: sub = 2
New grid distribution [2]: sub = 2
New grid distribution [3]: sub = 2
Setting up quadratic distribution...

stepf: Fermi-Dirac step function

siesta: Program's energy decomposition (eV):
siesta: Ebs     =      -101.129114
siesta: Eions   =       403.103471
siesta: Ena     =        38.772480
siesta: Ekin    =       225.445121
siesta: Enl     =       -70.879651
siesta: Eso     =         0.000000
siesta: Edftu   =         0.000000
siesta: DEna    =        -4.538044
siesta: DUscf   =         0.437278
siesta: DUext   =         0.000000
siesta: Ex      =       -86.434149
siesta: Ec      =        -9.124438
siesta: Exc     =       -95.558587
siesta: eta*DQ  =         0.000000
siesta: Emadel  =         0.000000
siesta: Emeta   =         0.000000
siesta: Emolmec =         0.000000
siesta: Ekinion =         0.000000
siesta: Eharris =      -309.424874
siesta: Etot    =      -309.424874
siesta: FreeEng =      -309.424881

        iscf     Eharris(eV)        E_KS(eV)     FreeEng(eV)     dDmax    Ef(eV) dHmax(eV)
   scf:    1     -309.424874     -309.424874     -309.424881  0.000026 -3.536644  0.000388

SCF Convergence by DM+H criterion
max |DM_out - DM_in|         :     0.0000257911
max |H_out - H_in|      (eV) :     0.0003875476
SCF cycle converged after 1 iterations
timer: Routine,Calls,Time,% = IterSCF        1       7.144  81.96

Using DM_out to compute the final energy and forces
No. of atoms with KB's overlaping orbs in proc 0. Max # of overlaps:      19     217

siesta: E_KS(eV) =             -309.4249

siesta: E_KS - E_eggbox =      -309.4249

siesta: Atomic forces (eV/Ang):
----------------------------------------
   Tot    0.000000    0.000117   -0.000000
----------------------------------------
   Max    0.003349
   Res    0.001902    sqrt( Sum f_i^2 / 3N )
----------------------------------------
   Max    0.003349    constrained

Stress tensor Voigt[x,y,z,yz,xz,xy] (kbar):      -17.30      -17.36        0.06       -0.00        0.00       -0.03
(Free)E + p*V (eV/cell)     -308.4886
Target enthalpy (eV/cell)     -309.4249
Computing bands...

siesta: PDOS info
siesta: E1 -- E2, sigma [eV], nhist:  -15.000 --    5.000    0.100 500

siesta: Program's energy decomposition (eV):
siesta: Ebs     =      -101.129114
siesta: Eions   =       403.103471
siesta: Ena     =        38.772480
siesta: Ekin    =       225.445121
siesta: Enl     =       -70.879651
siesta: Eso     =         0.000000
siesta: Edftu   =         0.000000
siesta: DEna    =        -4.538044
siesta: DUscf   =         0.437278
siesta: DUext   =         0.000000
siesta: Ex      =       -86.434149
siesta: Ec      =        -9.124438
siesta: Exc     =       -95.558587
siesta: eta*DQ  =         0.000000
siesta: Emadel  =         0.000000
siesta: Emeta   =         0.000000
siesta: Emolmec =         0.000000
siesta: Ekinion =         0.000000
siesta: Eharris =      -309.424874
siesta: Etot    =      -309.424874
siesta: FreeEng =      -309.424881

siesta: Final energy (eV):
siesta:  Band Struct. =    -101.129114
siesta:       Kinetic =     225.445121
siesta:       Hartree =    1970.173131
siesta:       Edftu   =       0.000000
siesta:       Eso     =       0.000000
siesta:    Ext. field =       0.000000
siesta:         Exch. =     -86.434149
siesta:         Corr. =      -9.124438
siesta:   Exch.-corr. =     -95.558587
siesta:  Ion-electron =   -4142.505628
siesta:       Ion-ion =    1733.021089
siesta:       Ekinion =       0.000000
siesta:         Total =    -309.424874
siesta:         Fermi =      -3.536644

siesta: Stress tensor (static) (eV/Ang**3):
siesta:    -0.010799   -0.000018    0.000000
siesta:    -0.000018   -0.010833   -0.000000
siesta:     0.000000   -0.000000    0.000040

siesta: Cell volume =        130.091617 Ang**3

siesta: Pressure (static):
siesta:                Solid            Molecule  Units
siesta:           0.00007839          0.00007826  Ry/Bohr**3
siesta:           0.00719733          0.00718532  eV/Ang**3
siesta:          11.53151570         11.51227265  kBar
(Free)E+ p_basis*V_orbitals  =        -308.837797
(Free)Eharris+ p_basis*V_orbitals  =        -308.837797

siesta: Electric dipole (a.u.)  =   -0.000000   -0.000000   -0.000000
siesta: Electric dipole (Debye) =   -0.000000   -0.000000   -0.000000

cite: Please see "graphene.bib" for an exhaustive BiBTeX file.
cite: Please clearly indicate Siesta version in published work: 5.0.0-alpha-6-g46a0c9063
cite: This calculation has made use of the following articles
cite: which are encouraged to be cited in a published work.
        Primary SIESTA paper
          DOI: www.doi.org/10.1088/0953-8984/14/11/302


>> End of run:  26-MAY-2021  12:09:49
Job completed
