Siesta Version  : 5.0.0-alpha-6-g46a0c9063
Architecture    : x86_64-unknown-linux-gnu--unknown
Compiler version: GNU Fortran (Ubuntu 10.2.0-13ubuntu1) 10.2.0
Compiler flags  : mpif90 -g -O2 -fallow-argument-mismatch
PP flags        : -DMPI -DFC_HAVE_FLUSH -DFC_HAVE_ABORT
Libraries       :  /usr/lib/x86_64-linux-gnu/libscalapack-openmpi.so  -L/usr/lib/x86_64-linux-ggnu -lblas -llapack -lblas
Directory       : /home/asier/Documents/master/tfm/siesta/Examples/H2O_opt
PARALLEL version

* Running on 4 nodes in parallel
>> Start of run:  30-APR-2021   9:44:51

                           ***********************       
                           *  WELCOME TO SIESTA  *       
                           ***********************       

reinit: Reading from standard input
reinit: Dumped input in INPUT_TMP.01582
************************** Dump of input data file ****************************
SystemName          Water molecule
SystemLabel         h2o
NumberOfAtoms       3
NumberOfSpecies     2
%block ChemicalSpeciesLabel
 1  8  O      # Species index, atomic number, species label
 2  1  H
%endblock ChemicalSpeciesLabel
AtomicCoordinatesFormat  Ang
%block AtomicCoordinatesAndAtomicSpecies
 0.000  0.000  0.000  1
 0.757  0.586  0.000  2
-0.757  0.586  0.000  2
%endblock AtomicCoordinatesAndAtomicSpecies
MD.TypeOfRun     CG
MD.NumCGSteps    30
MD.MaxForceTol   0.02 eV/Ang
WriteCoorXmol    .true.
************************** End of input data file *****************************

reinit: -----------------------------------------------------------------------
reinit: System Name: Water molecule
reinit: -----------------------------------------------------------------------
reinit: System Label: h2o
reinit: -----------------------------------------------------------------------

initatom: Reading input for the pseudopotentials and atomic orbitals ----------
Species number:   1 Atomic number:    8 Label: O
Species number:   2 Atomic number:    1 Label: H

Ground state valence configuration:   2s02  2p04
Reading pseudopotential information in formatted form from O.psf

Valence configuration for pseudopotential generation:
2s( 2.00) rc: 1.14
2p( 4.00) rc: 1.14
3d( 0.00) rc: 1.14
4f( 0.00) rc: 1.14
Ground state valence configuration:   1s01
Reading pseudopotential information in formatted form from H.psf

Valence configuration for pseudopotential generation:
1s( 1.00) rc: 1.25
2p( 0.00) rc: 1.25
3d( 0.00) rc: 1.25
4f( 0.00) rc: 1.25
For O, standard SIESTA heuristics set lmxkb to 3
 (one more than the basis l, including polarization orbitals).
Use PS.lmax or PS.KBprojectors blocks to override.
For H, standard SIESTA heuristics set lmxkb to 2
 (one more than the basis l, including polarization orbitals).
Use PS.lmax or PS.KBprojectors blocks to override.

<basis_specs>
===============================================================================
O                    Z=   8    Mass=  16.000        Charge= 0.17977+309
Lmxo=1 Lmxkb= 3    BasisType=split      Semic=F
L=0  Nsemic=0  Cnfigmx=2
          i=1  nzeta=2  polorb=0  (2s)
            splnorm:   0.15000    
               vcte:    0.0000    
               rinn:    0.0000    
               qcoe:    0.0000    
               qyuk:    0.0000    
               qwid:   0.10000E-01
                rcs:    0.0000      0.0000    
            lambdas:    1.0000      1.0000    
L=1  Nsemic=0  Cnfigmx=2
          i=1  nzeta=2  polorb=1  (2p)
            splnorm:   0.15000    
               vcte:    0.0000    
               rinn:    0.0000    
               qcoe:    0.0000    
               qyuk:    0.0000    
               qwid:   0.10000E-01
                rcs:    0.0000      0.0000    
            lambdas:    1.0000      1.0000    
-------------------------------------------------------------------------------
L=0  Nkbl=1  erefs: 0.17977+309
L=1  Nkbl=1  erefs: 0.17977+309
L=2  Nkbl=1  erefs: 0.17977+309
L=3  Nkbl=1  erefs: 0.17977+309
===============================================================================
</basis_specs>

atom: Called for O                     (Z =   8)

read_vps: Pseudopotential generation method:
read_vps: ATM4.2.7  Troullier-Martins                       
Valence charge for ps generation:    6.00000

xc_check: Exchange-correlation functional:
xc_check: Ceperley-Alder
V l=0 = -2*Zval/r beyond r=  1.1278
V l=1 = -2*Zval/r beyond r=  1.1278
V l=2 = -2*Zval/r beyond r=  1.1278
V l=3 = -2*Zval/r beyond r=  1.1138
All V_l potentials equal beyond r=  1.1278
This should be close to max(r_c) in ps generation
All pots = -2*Zval/r beyond r=  1.1278

VLOCAL1: 99.0% of the norm of Vloc inside     34.126 Ry
VLOCAL1: 99.9% of the norm of Vloc inside     77.774 Ry
atom: Maximum radius for 4*pi*r*r*local-pseudopot. charge    1.37759
atom: Maximum radius for r*vlocal+2*Zval:    1.18566

KBgen: Kleinman-Bylander projectors: 
GHOST: No ghost state for L =  0
   l= 0   rc=  1.294105   el= -1.742414   Ekb=  9.135903   kbcos=  0.326910
GHOST: No ghost state for L =  1
   l= 1   rc=  1.294105   el= -0.676589   Ekb= -8.124878   kbcos= -0.395047
GHOST: No ghost state for L =  2
   l= 2   rc=  1.448233   el=  0.002386   Ekb= -2.039267   kbcos= -0.003484
GHOST: No ghost state for L =  3
   l= 3   rc=  1.561052   el=  0.003508   Ekb= -0.799133   kbcos= -0.000344

KBgen: Total number of  Kleinman-Bylander projectors:   16
atom: -------------------------------------------------------------------------

atom: SANKEY-TYPE ORBITALS:
atom: Selected multiple-zeta basis: split     

SPLIT: Orbitals with angular momentum L= 0

SPLIT: Basis orbitals for state 2s

SPLIT: PAO cut-off radius determined from an
SPLIT: energy shift=  0.020000 Ry

   izeta = 1
                 lambda =    1.000000
                     rc =    3.305093
                 energy =   -1.723766
                kinetic =    1.614911
    potential(screened) =   -3.338677
       potential(ionic) =  -11.304675

   izeta = 2
                 rmatch =    2.510382
              splitnorm =    0.150000
                 energy =   -1.471299
                kinetic =    2.446434
    potential(screened) =   -3.917732
       potential(ionic) =  -12.476133

SPLIT: Orbitals with angular momentum L= 1

SPLIT: Basis orbitals for state 2p

SPLIT: PAO cut-off radius determined from an
SPLIT: energy shift=  0.020000 Ry

   izeta = 1
                 lambda =    1.000000
                     rc =    3.937239
                 energy =   -0.658841
                kinetic =    5.005986
    potential(screened) =   -5.664827
       potential(ionic) =  -13.452360

   izeta = 2
                 rmatch =    2.541963
              splitnorm =    0.150000
                 energy =   -0.367441
                kinetic =    7.530509
    potential(screened) =   -7.897949
       potential(ionic) =  -16.611953

POLgen: Perturbative polarization orbital with L=  2

POLgen: Polarization orbital for state 2p

   izeta = 1
                     rc =    3.937239
                 energy =    2.398520
                kinetic =    4.716729
    potential(screened) =   -2.318209
       potential(ionic) =   -8.603170
atom: Total number of Sankey-type orbitals: 13

atm_pop: Valence configuration (for local Pseudopot. screening):
 2s( 2.00)                                                            
 2p( 4.00)                                                            
Vna: chval, zval:    6.00000   6.00000

Vna:  Cut-off radius for the neutral-atom potential:   3.937239

atom: _________________________________________________________________________

<basis_specs>
===============================================================================
H                    Z=   1    Mass=  1.0100        Charge= 0.17977+309
Lmxo=0 Lmxkb= 2    BasisType=split      Semic=F
L=0  Nsemic=0  Cnfigmx=1
          i=1  nzeta=2  polorb=1  (1s)
            splnorm:   0.15000    
               vcte:    0.0000    
               rinn:    0.0000    
               qcoe:    0.0000    
               qyuk:    0.0000    
               qwid:   0.10000E-01
                rcs:    0.0000      0.0000    
            lambdas:    1.0000      1.0000    
-------------------------------------------------------------------------------
L=0  Nkbl=1  erefs: 0.17977+309
L=1  Nkbl=1  erefs: 0.17977+309
L=2  Nkbl=1  erefs: 0.17977+309
===============================================================================
</basis_specs>

atom: Called for H                     (Z =   1)

read_vps: Pseudopotential generation method:
read_vps: ATM3      Troullier-Martins                       
Valence charge for ps generation:    1.00000

xc_check: Exchange-correlation functional:
xc_check: Ceperley-Alder
V l=0 = -2*Zval/r beyond r=  1.2343
V l=1 = -2*Zval/r beyond r=  1.2189
V l=2 = -2*Zval/r beyond r=  1.2189
All V_l potentials equal beyond r=  1.2343
This should be close to max(r_c) in ps generation
All pots = -2*Zval/r beyond r=  1.2343

VLOCAL1: 99.0% of the norm of Vloc inside     28.493 Ry
VLOCAL1: 99.9% of the norm of Vloc inside     64.935 Ry
atom: Maximum radius for 4*pi*r*r*local-pseudopot. charge    1.45251
atom: Maximum radius for r*vlocal+2*Zval:    1.21892

KBgen: Kleinman-Bylander projectors: 
GHOST: No ghost state for L =  0
   l= 0   rc=  1.364359   el= -0.467325   Ekb= -2.005361   kbcos= -0.336422
GHOST: No ghost state for L =  1
   l= 1   rc=  1.434438   el=  0.001430   Ekb= -0.501708   kbcos= -0.021697
GHOST: No ghost state for L =  2
   l= 2   rc=  1.470814   el=  0.002365   Ekb= -0.190555   kbcos= -0.002281

KBgen: Total number of  Kleinman-Bylander projectors:    9
atom: -------------------------------------------------------------------------

atom: SANKEY-TYPE ORBITALS:
atom: Selected multiple-zeta basis: split     

SPLIT: Orbitals with angular momentum L= 0

SPLIT: Basis orbitals for state 1s

SPLIT: PAO cut-off radius determined from an
SPLIT: energy shift=  0.020000 Ry

   izeta = 1
                 lambda =    1.000000
                     rc =    4.828263
                 energy =   -0.449375
                kinetic =    0.929372
    potential(screened) =   -1.378747
       potential(ionic) =   -1.915047

   izeta = 2
                 rmatch =    3.854947
              splitnorm =    0.150000
                 energy =   -0.336153
                kinetic =    1.505294
    potential(screened) =   -1.841447
       potential(ionic) =   -2.413582

POLgen: Perturbative polarization orbital with L=  1

POLgen: Polarization orbital for state 1s

   izeta = 1
                     rc =    4.828263
                 energy =    0.706972
                kinetic =    1.396397
    potential(screened) =   -0.689424
       potential(ionic) =   -1.169792
atom: Total number of Sankey-type orbitals:  5

atm_pop: Valence configuration (for local Pseudopot. screening):
 1s( 1.00)                                                            
Vna: chval, zval:    1.00000   1.00000

Vna:  Cut-off radius for the neutral-atom potential:   4.828263

atom: _________________________________________________________________________

prinput: Basis input ----------------------------------------------------------

PAO.BasisType split     

%block ChemicalSpeciesLabel
    1    8 O                       # Species index, atomic number, species label
    2    1 H                       # Species index, atomic number, species label
%endblock ChemicalSpeciesLabel

%block PAO.Basis                 # Define Basis set
O                     2                    # Species label, number of l-shells
 n=2   0   2                         # n, l, Nzeta 
   3.305      2.510   
   1.000      1.000   
 n=2   1   2 P   1                   # n, l, Nzeta, Polarization, NzetaPol
   3.937      2.542   
   1.000      1.000   
H                     1                    # Species label, number of l-shells
 n=1   0   2 P   1                   # n, l, Nzeta, Polarization, NzetaPol
   4.828      3.855   
   1.000      1.000   
%endblock PAO.Basis

prinput: ----------------------------------------------------------------------

coor:   Atomic-coordinates input format  =     Cartesian coordinates
coor:                                          (in Angstroms)

siesta: Atomic coordinates (Bohr) and species
siesta:      0.00000   0.00000   0.00000  1        1
siesta:      1.43052   1.10738   0.00000  2        2
siesta:     -1.43052   1.10738   0.00000  2        3

siesta: Automatic unit cell vectors (Ang):
siesta:    7.286412    0.000000    0.000000
siesta:    0.000000    5.746952    0.000000
siesta:    0.000000    0.000000    5.621012

siesta: System type = molecule  

initatomlists: Number of atoms, orbitals, and projectors:      3    23    34

coxmol: Writing XMOL coordinates into file h2o.xyz                                                             

siesta: ******************** Simulation parameters ****************************
siesta:
siesta: The following are some of the parameters of the simulation.
siesta: A complete list of the parameters used, including default values,
siesta: can be found in file out.fdf
siesta:
redata: Spin configuration                          = none
redata: Number of spin components                   = 1
redata: Time-Reversal Symmetry                      = T
redata: Spin spiral                                 = F
redata: Long output                                 =   F
redata: Number of Atomic Species                    =        2
redata: Charge density info will appear in .RHO file
redata: Write Mulliken Pop.                         = NO
redata: Matel table size (NRTAB)                    =     1024
redata: Mesh Cutoff                                 =   300.0000 Ry
redata: Net charge of the system                    =     0.0000 |e|
redata: Min. number of SCF Iter                     =        0
redata: Max. number of SCF Iter                     =     1000
redata: SCF convergence failure will abort job
redata: SCF mix quantity                            = Hamiltonian
redata: Mix DM or H after convergence               =   F
redata: Recompute H after scf cycle                 =   F
redata: Mix DM in first SCF step                    =   T
redata: Write Pulay info on disk                    =   F
redata: New DM Occupancy tolerance                  = 0.000000000001
redata: No kicks to SCF
redata: DM Mixing Weight for Kicks                  =     0.5000
redata: Require Harris convergence for SCF          =   F
redata: Harris energy tolerance for SCF             =     0.000100 eV
redata: Require DM convergence for SCF              =   T
redata: DM tolerance for SCF                        =     0.000100
redata: Require EDM convergence for SCF             =   F
redata: EDM tolerance for SCF                       =     0.001000 eV
redata: Require H convergence for SCF               =   T
redata: Hamiltonian tolerance for SCF               =     0.001000 eV
redata: Require (free) Energy convergence for SCF   =   F
redata: (free) Energy tolerance for SCF             =     0.000100 eV
redata: Using Saved Data (generic)                  =   F
redata: Use continuation files for DM               =   F
redata: Neglect nonoverlap interactions             =   F
redata: Method of Calculation                       = Diagonalization
redata: Electronic Temperature                      =   299.9869 K
redata: Fix the spin of the system                  =   F
redata: Max. number of TDED Iter                    =        1
redata: Number of TDED substeps                     =        3
redata: Dynamics option                             = CG coord. optimization
redata: Variable cell                               =   F
redata: Use continuation files for CG               =   F
redata: Max atomic displ per move                   =     0.1058 Ang
redata: Maximum number of optimization moves        =       30
redata: Force tolerance                             =     0.0200 eV/Ang
mix.SCF: Pulay mixing                            = Pulay
mix.SCF:    Variant                              = stable
mix.SCF:    History steps                        = 2
mix.SCF:    Linear mixing weight                 =     0.250000
mix.SCF:    Mixing weight                        =     0.250000
mix.SCF:    SVD condition                        = 0.1000E-07
redata: ***********************************************************************

%block SCF.Mixers
  Pulay
%endblock SCF.Mixers

%block SCF.Mixer.Pulay
  # Mixing method
  method pulay
  variant stable

  # Mixing options
  weight 0.2500
  weight.linear 0.2500
  history 2
%endblock SCF.Mixer.Pulay

DM_history_depth set to one: no extrapolation allowed by default for geometry relaxation
Size of DM history Fstack: 1
Total number of electrons:     8.000000
Total ionic charge:     8.000000

* ProcessorY, Blocksize:    2   6


* Orbital distribution balance (max,min):     6     5


siesta: k-grid: Number of k-points =         1
siesta: k-point is Gamma-only

diag: Algorithm                                     = D&C
diag: Parallel over k                               =   F
diag: Use parallel 2D distribution                  =   T
diag: Parallel block-size                           = 6
diag: Parallel distribution                         =     2 x     2
diag: Used triangular part                          = Lower
diag: Absolute tolerance                            =  0.100E-15
diag: Orthogonalization factor                      =  0.100E-05
diag: Memory factor                                 =  1.0000


ts: **************************************************************
ts: Save H and S matrices                           =    F
ts: Save DM and EDM matrices                        =    F
ts: Only save the overlap matrix S                  =    F
ts: **************************************************************

************************ Begin: TS CHECKS AND WARNINGS ************************
************************ End: TS CHECKS AND WARNINGS **************************


                     ====================================
                        Begin CG opt. move =      0
                     ====================================

outcell: Unit cell vectors (Ang):
        7.286412    0.000000    0.000000
        0.000000    5.746952    0.000000
        0.000000    0.000000    5.621012

outcell: Cell vector modules (Ang)   :    7.286412    5.746952    5.621012
outcell: Cell angles (23,13,12) (deg):     90.0000     90.0000     90.0000
outcell: Cell volume (Ang**3)        :    235.3780
<dSpData1D:S at geom step 0
  <sparsity:sparsity for geom step 0
    nrows_g=23 nrows=6 sparsity=.2609 nnzs=138, refcount: 7>
  <dData1D:(new from dSpData1D) n=138, refcount: 1>
refcount: 1>
new_DM -- step:     1
Initializing Density Matrix...
DM filled with atomic data:
<dSpData2D:DM initialized from atoms
  <sparsity:sparsity for geom step 0
    nrows_g=23 nrows=6 sparsity=.2609 nnzs=138, refcount: 8>
  <dData2D:DM n=138 m=1, refcount: 1>
refcount: 1>
No. of atoms with KB's overlaping orbs in proc 0. Max # of overlaps:       3      23

InitMesh: MESH = 80 x 60 x 60 = 288000
InitMesh: Mesh cutoff (required, used) =   300.000   301.251 Ry
New grid distribution [1]: sub = 2
New grid distribution [2]: sub = 2
New grid distribution [3]: sub = 2
Setting up quadratic distribution...

stepf: Fermi-Dirac step function

siesta: Program's energy decomposition (eV):
siesta: Ebs     =       -82.676659
siesta: Eions   =       815.854478
siesta: Ena     =       175.155695
siesta: Ekin    =       377.213198
siesta: Enl     =       -69.167327
siesta: Eso     =         0.000000
siesta: Edftu   =         0.000000
siesta: DEna    =       -17.374370
siesta: DUscf   =         2.067275
siesta: DUext   =         0.000000
siesta: Ex      =      -104.251654
siesta: Ec      =       -12.785255
siesta: Exc     =      -117.036908
siesta: eta*DQ  =         0.000000
siesta: Emadel  =         0.000000
siesta: Emeta   =         0.000000
siesta: Emolmec =         0.000000
siesta: Ekinion =         0.000000
siesta: Eharris =      -466.891250
siesta: Etot    =      -464.996916
siesta: FreeEng =      -464.996916

        iscf     Eharris(eV)        E_KS(eV)     FreeEng(eV)     dDmax    Ef(eV) dHmax(eV)
   scf:    1     -466.891250     -464.996916     -464.996916  1.431974 -4.434799  7.272093
timer: Routine,Calls,Time,% = IterSCF        1       0.078   4.98
   scf:    2     -466.193917     -465.705305     -465.705305  0.060167 -3.238968  2.856359
   scf:    3     -465.817188     -465.800096     -465.800096  0.029062 -2.423680  0.341780
   scf:    4     -465.805538     -465.802998     -465.802998  0.010067 -2.348503  0.262101
   scf:    5     -465.805100     -465.804480     -465.804480  0.021212 -2.136615  0.060205
   scf:    6     -465.804639     -465.804570     -465.804570  0.000360 -2.113005  0.028936
   scf:    7     -465.804630     -465.804603     -465.804603  0.000774 -2.114361  0.019398
   scf:    8     -465.804628     -465.804617     -465.804617  0.000649 -2.117530  0.014176
   scf:    9     -465.804623     -465.804620     -465.804620  0.000596 -2.123260  0.006211
   scf:   10     -465.804620     -465.804620     -465.804620  0.000162 -2.126575  0.002839
   scf:   11     -465.804621     -465.804620     -465.804620  0.000024 -2.127288  0.001970
   scf:   12     -465.804621     -465.804621     -465.804621  0.000031 -2.127603  0.000953

SCF Convergence by DM+H criterion
max |DM_out - DM_in|         :     0.0000309689
max |H_out - H_in|      (eV) :     0.0009530753
SCF cycle converged after 12 iterations

Using DM_out to compute the final energy and forces
No. of atoms with KB's overlaping orbs in proc 0. Max # of overlaps:       3      23

siesta: E_KS(eV) =             -465.8046

siesta: E_KS - E_eggbox =      -465.8046

siesta: Atomic forces (eV/Ang):
----------------------------------------
   Tot    0.000000   -0.000160   -0.000000
----------------------------------------
   Max    0.693760
   Res    0.422164    sqrt( Sum f_i^2 / 3N )
----------------------------------------
   Max    0.693760    constrained

Stress tensor Voigt[x,y,z,yz,xz,xy] (kbar):       -6.89       -2.47       -0.11        0.00        0.00        0.00
(Free)E + p*V (eV/cell)     -465.3407
Target enthalpy (eV/cell)     -465.8046

                     ====================================
                        Begin CG opt. move =      1
                     ====================================

outcell: Unit cell vectors (Ang):
        7.286412    0.000000    0.000000
        0.000000    5.746952    0.000000
        0.000000    0.000000    5.621012

outcell: Cell vector modules (Ang)   :    7.286412    5.746952    5.621012
outcell: Cell angles (23,13,12) (deg):     90.0000     90.0000     90.0000
outcell: Cell volume (Ang**3)        :    235.3780
<dSpData1D:S at geom step 1
  <sparsity:sparsity for geom step 1
    nrows_g=23 nrows=6 sparsity=.2609 nnzs=138, refcount: 7>
  <dData1D:(new from dSpData1D) n=138, refcount: 1>
refcount: 1>
new_DM -- step:     2
Re-using DM from previous geometries...
Number of DMs in history: 1
 DM extrapolation coefficients: 
1   1.00000
New DM after history re-use:
<dSpData2D:SpM extrapolated using coords
  <sparsity:sparsity for geom step 1
    nrows_g=23 nrows=6 sparsity=.2609 nnzs=138, refcount: 9>
  <dData2D:(temp array for extrapolation) n=138 m=1, refcount: 1>
refcount: 1>
Note: For starting DM, Qtot, Tr[D*S] =          8.00000000          7.84553857
No. of atoms with KB's overlaping orbs in proc 0. Max # of overlaps:       3      23

InitMesh: MESH = 80 x 60 x 60 = 288000
InitMesh: Mesh cutoff (required, used) =   300.000   301.251 Ry
New grid distribution [1]: sub = 2
New grid distribution [2]: sub = 2
New grid distribution [3]: sub = 2
Setting up quadratic distribution...

        iscf     Eharris(eV)        E_KS(eV)     FreeEng(eV)     dDmax    Ef(eV) dHmax(eV)
   scf:    1     -466.439727     -465.477540     -465.477540  0.165675 -2.133523  1.801672
   scf:    2     -464.714928     -465.286852     -465.286852  0.095522 -3.223167  3.406483
   scf:    3     -465.628053     -465.540969     -465.540969  0.063153 -2.500145  0.053017
   scf:    4     -465.541283     -465.541136     -465.541136  0.001914 -2.501424  0.041283
   scf:    5     -465.541331     -465.541239     -465.541239  0.002673 -2.508738  0.026422
   scf:    6     -465.541276     -465.541259     -465.541259  0.002065 -2.517647  0.006463
   scf:    7     -465.541260     -465.541260     -465.541260  0.000278 -2.520058  0.004368
   scf:    8     -465.541261     -465.541260     -465.541260  0.000048 -2.520895  0.002731
   scf:    9     -465.541261     -465.541260     -465.541260  0.000064 -2.521154  0.001251
   scf:   10     -465.541261     -465.541260     -465.541260  0.000062 -2.521125  0.000723

SCF Convergence by DM+H criterion
max |DM_out - DM_in|         :     0.0000621835
max |H_out - H_in|      (eV) :     0.0007232318
SCF cycle converged after 10 iterations

Using DM_out to compute the final energy and forces
No. of atoms with KB's overlaping orbs in proc 0. Max # of overlaps:       3      23

siesta: E_KS(eV) =             -465.5413

siesta: Atomic forces (eV/Ang):
----------------------------------------
   Tot    0.000000   -0.002115    0.000000
----------------------------------------
   Max    3.841358
   Res    1.891444    sqrt( Sum f_i^2 / 3N )
----------------------------------------
   Max    3.841358    constrained

Stress tensor Voigt[x,y,z,yz,xz,xy] (kbar):       24.78       17.94       -0.13        0.00       -0.00        0.00
(Free)E + p*V (eV/cell)     -467.6268
Target enthalpy (eV/cell)     -465.5413

                     ====================================
                        Begin CG opt. move =      2
                     ====================================

outcell: Unit cell vectors (Ang):
        7.286412    0.000000    0.000000
        0.000000    5.746952    0.000000
        0.000000    0.000000    5.621012

outcell: Cell vector modules (Ang)   :    7.286412    5.746952    5.621012
outcell: Cell angles (23,13,12) (deg):     90.0000     90.0000     90.0000
outcell: Cell volume (Ang**3)        :    235.3780
<dSpData1D:S at geom step 2
  <sparsity:sparsity for geom step 2
    nrows_g=23 nrows=6 sparsity=.2609 nnzs=138, refcount: 7>
  <dData1D:(new from dSpData1D) n=138, refcount: 1>
refcount: 1>
new_DM -- step:     3
Re-using DM from previous geometries...
Number of DMs in history: 1
 DM extrapolation coefficients: 
1   1.00000
New DM after history re-use:
<dSpData2D:SpM extrapolated using coords
  <sparsity:sparsity for geom step 2
    nrows_g=23 nrows=6 sparsity=.2609 nnzs=138, refcount: 9>
  <dData2D:(temp array for extrapolation) n=138 m=1, refcount: 1>
refcount: 1>
Note: For starting DM, Qtot, Tr[D*S] =          8.00000000          8.11474620
No. of atoms with KB's overlaping orbs in proc 0. Max # of overlaps:       3      23

InitMesh: MESH = 80 x 60 x 60 = 288000
InitMesh: Mesh cutoff (required, used) =   300.000   301.251 Ry
New grid distribution [1]: sub = 2
New grid distribution [2]: sub = 2
New grid distribution [3]: sub = 2
Setting up quadratic distribution...

        iscf     Eharris(eV)        E_KS(eV)     FreeEng(eV)     dDmax    Ef(eV) dHmax(eV)
   scf:    1     -464.965867     -465.766670     -465.766670  0.130777 -2.532410  1.564290
   scf:    2     -465.305468     -465.656610     -465.656610  0.063791 -1.588473  2.712540
   scf:    3     -465.867852     -465.813172     -465.813172  0.039061 -2.189260  0.048263
   scf:    4     -465.813310     -465.813244     -465.813244  0.001224 -2.181430  0.028098
   scf:    5     -465.813349     -465.813300     -465.813300  0.001764 -2.172076  0.011734
   scf:    6     -465.813310     -465.813305     -465.813305  0.000638 -2.168249  0.004309
   scf:    7     -465.813306     -465.813306     -465.813306  0.000147 -2.166648  0.002802
   scf:    8     -465.813306     -465.813306     -465.813306  0.000081 -2.165405  0.001683
   scf:    9     -465.813306     -465.813306     -465.813306  0.000029 -2.165300  0.001007
   scf:   10     -465.813306     -465.813306     -465.813306  0.000044 -2.165319  0.000538

SCF Convergence by DM+H criterion
max |DM_out - DM_in|         :     0.0000441043
max |H_out - H_in|      (eV) :     0.0005384549
SCF cycle converged after 10 iterations

Using DM_out to compute the final energy and forces
No. of atoms with KB's overlaping orbs in proc 0. Max # of overlaps:       3      23

siesta: E_KS(eV) =             -465.8133

siesta: Atomic forces (eV/Ang):
----------------------------------------
   Tot   -0.000000    0.000834   -0.000000
----------------------------------------
   Max    0.371269
   Res    0.153275    sqrt( Sum f_i^2 / 3N )
----------------------------------------
   Max    0.371269    constrained

Stress tensor Voigt[x,y,z,yz,xz,xy] (kbar):        0.47        1.82       -0.11        0.00       -0.00       -0.00
(Free)E + p*V (eV/cell)     -465.9199
Target enthalpy (eV/cell)     -465.8133

cgvc: Finished line minimization    1.  Mean atomic displacement =    0.0216

                     ====================================
                        Begin CG opt. move =      3
                     ====================================

outcell: Unit cell vectors (Ang):
        7.286412    0.000000    0.000000
        0.000000    5.746952    0.000000
        0.000000    0.000000    5.621012

outcell: Cell vector modules (Ang)   :    7.286412    5.746952    5.621012
outcell: Cell angles (23,13,12) (deg):     90.0000     90.0000     90.0000
outcell: Cell volume (Ang**3)        :    235.3780
<dSpData1D:S at geom step 3
  <sparsity:sparsity for geom step 3
    nrows_g=23 nrows=6 sparsity=.2609 nnzs=138, refcount: 7>
  <dData1D:(new from dSpData1D) n=138, refcount: 1>
refcount: 1>
new_DM -- step:     4
Re-using DM from previous geometries...
Number of DMs in history: 1
 DM extrapolation coefficients: 
1   1.00000
New DM after history re-use:
<dSpData2D:SpM extrapolated using coords
  <sparsity:sparsity for geom step 3
    nrows_g=23 nrows=6 sparsity=.2609 nnzs=138, refcount: 9>
  <dData2D:(temp array for extrapolation) n=138 m=1, refcount: 1>
refcount: 1>
No. of atoms with KB's overlaping orbs in proc 0. Max # of overlaps:       3      23

InitMesh: MESH = 80 x 60 x 60 = 288000
InitMesh: Mesh cutoff (required, used) =   300.000   301.251 Ry
New grid distribution [1]: sub = 2
New grid distribution [2]: sub = 2
New grid distribution [3]: sub = 2
Setting up quadratic distribution...

        iscf     Eharris(eV)        E_KS(eV)     FreeEng(eV)     dDmax    Ef(eV) dHmax(eV)
   scf:    1     -465.884378     -465.810628     -465.810628  0.017295 -2.083113  0.032268
   scf:    2     -465.810715     -465.810696     -465.810696  0.001313 -2.073437  0.020000
   scf:    3     -465.810725     -465.810714     -465.810714  0.000356 -2.076558  0.003557
   scf:    4     -465.810715     -465.810714     -465.810714  0.000048 -2.076917  0.002969
   scf:    5     -465.810715     -465.810715     -465.810715  0.000116 -2.077883  0.000836
   scf:    6     -465.810715     -465.810715     -465.810715  0.000019 -2.078026  0.000245

SCF Convergence by DM+H criterion
max |DM_out - DM_in|         :     0.0000185869
max |H_out - H_in|      (eV) :     0.0002452269
SCF cycle converged after 6 iterations

Using DM_out to compute the final energy and forces
No. of atoms with KB's overlaping orbs in proc 0. Max # of overlaps:       3      23

siesta: E_KS(eV) =             -465.8107

siesta: Atomic forces (eV/Ang):
----------------------------------------
   Tot    0.000000    0.001399    0.000000
----------------------------------------
   Max    0.543889
   Res    0.291325    sqrt( Sum f_i^2 / 3N )
----------------------------------------
   Max    0.543889    constrained

Stress tensor Voigt[x,y,z,yz,xz,xy] (kbar):        4.21        2.49       -0.11       -0.00        0.00        0.00
(Free)E + p*V (eV/cell)     -466.1332
Target enthalpy (eV/cell)     -465.8107

                     ====================================
                        Begin CG opt. move =      4
                     ====================================

outcell: Unit cell vectors (Ang):
        7.286412    0.000000    0.000000
        0.000000    5.746952    0.000000
        0.000000    0.000000    5.621012

outcell: Cell vector modules (Ang)   :    7.286412    5.746952    5.621012
outcell: Cell angles (23,13,12) (deg):     90.0000     90.0000     90.0000
outcell: Cell volume (Ang**3)        :    235.3780
<dSpData1D:S at geom step 4
  <sparsity:sparsity for geom step 4
    nrows_g=23 nrows=6 sparsity=.2609 nnzs=138, refcount: 7>
  <dData1D:(new from dSpData1D) n=138, refcount: 1>
refcount: 1>
new_DM -- step:     5
Re-using DM from previous geometries...
Number of DMs in history: 1
 DM extrapolation coefficients: 
1   1.00000
New DM after history re-use:
<dSpData2D:SpM extrapolated using coords
  <sparsity:sparsity for geom step 4
    nrows_g=23 nrows=6 sparsity=.2609 nnzs=138, refcount: 9>
  <dData2D:(temp array for extrapolation) n=138 m=1, refcount: 1>
refcount: 1>
No. of atoms with KB's overlaping orbs in proc 0. Max # of overlaps:       3      23

InitMesh: MESH = 80 x 60 x 60 = 288000
InitMesh: Mesh cutoff (required, used) =   300.000   301.251 Ry
New grid distribution [1]: sub = 2
New grid distribution [2]: sub = 2
New grid distribution [3]: sub = 2
Setting up quadratic distribution...

        iscf     Eharris(eV)        E_KS(eV)     FreeEng(eV)     dDmax    Ef(eV) dHmax(eV)
   scf:    1     -465.752642     -465.813378     -465.813378  0.014224 -2.145854  0.026027
   scf:    2     -465.813423     -465.813422     -465.813422  0.001110 -2.150401  0.016544
   scf:    3     -465.813447     -465.813438     -465.813438  0.000355 -2.149591  0.003729
   scf:    4     -465.813439     -465.813439     -465.813439  0.000046 -2.149609  0.002342
   scf:    5     -465.813439     -465.813439     -465.813439  0.000069 -2.149301  0.001411
   scf:    6     -465.813439     -465.813439     -465.813439  0.000043 -2.148980  0.000362

SCF Convergence by DM+H criterion
max |DM_out - DM_in|         :     0.0000427912
max |H_out - H_in|      (eV) :     0.0003622975
SCF cycle converged after 6 iterations

Using DM_out to compute the final energy and forces
No. of atoms with KB's overlaping orbs in proc 0. Max # of overlaps:       3      23

siesta: E_KS(eV) =             -465.8134

siesta: Atomic forces (eV/Ang):
----------------------------------------
   Tot    0.000000    0.000822    0.000000
----------------------------------------
   Max    0.402686
   Res    0.172706    sqrt( Sum f_i^2 / 3N )
----------------------------------------
   Max    0.402686    constrained

Stress tensor Voigt[x,y,z,yz,xz,xy] (kbar):        1.13        1.94       -0.11        0.00        0.00        0.00
(Free)E + p*V (eV/cell)     -465.9584
Target enthalpy (eV/cell)     -465.8134

cgvc: Finished line minimization    2.  Mean atomic displacement =    0.0038

                     ====================================
                        Begin CG opt. move =      5
                     ====================================

outcell: Unit cell vectors (Ang):
        7.286412    0.000000    0.000000
        0.000000    5.746952    0.000000
        0.000000    0.000000    5.621012

outcell: Cell vector modules (Ang)   :    7.286412    5.746952    5.621012
outcell: Cell angles (23,13,12) (deg):     90.0000     90.0000     90.0000
outcell: Cell volume (Ang**3)        :    235.3780
<dSpData1D:S at geom step 5
  <sparsity:sparsity for geom step 5
    nrows_g=23 nrows=6 sparsity=.2609 nnzs=138, refcount: 7>
  <dData1D:(new from dSpData1D) n=138, refcount: 1>
refcount: 1>
new_DM -- step:     6
Re-using DM from previous geometries...
Number of DMs in history: 1
 DM extrapolation coefficients: 
1   1.00000
New DM after history re-use:
<dSpData2D:SpM extrapolated using coords
  <sparsity:sparsity for geom step 5
    nrows_g=23 nrows=6 sparsity=.2609 nnzs=138, refcount: 9>
  <dData2D:(temp array for extrapolation) n=138 m=1, refcount: 1>
refcount: 1>
No. of atoms with KB's overlaping orbs in proc 0. Max # of overlaps:       3      23

InitMesh: MESH = 80 x 60 x 60 = 288000
InitMesh: Mesh cutoff (required, used) =   300.000   301.251 Ry
New grid distribution [1]: sub = 2
New grid distribution [2]: sub = 2
New grid distribution [3]: sub = 2
Setting up quadratic distribution...

        iscf     Eharris(eV)        E_KS(eV)     FreeEng(eV)     dDmax    Ef(eV) dHmax(eV)
   scf:    1     -465.785207     -465.814737     -465.814737  0.005765 -2.145769  0.069760
   scf:    2     -465.813938     -465.814548     -465.814548  0.002960 -2.102901  0.114617
   scf:    3     -465.814918     -465.814820     -465.814820  0.001831 -2.129836  0.002430
   scf:    4     -465.814820     -465.814820     -465.814820  0.000046 -2.129494  0.001716
   scf:    5     -465.814820     -465.814820     -465.814820  0.000105 -2.128697  0.000079
   scf:    6     -465.814820     -465.814820     -465.814820  0.000001 -2.128697  0.000052

SCF Convergence by DM+H criterion
max |DM_out - DM_in|         :     0.0000009484
max |H_out - H_in|      (eV) :     0.0000519897
SCF cycle converged after 6 iterations

Using DM_out to compute the final energy and forces
No. of atoms with KB's overlaping orbs in proc 0. Max # of overlaps:       3      23

siesta: E_KS(eV) =             -465.8148

siesta: Atomic forces (eV/Ang):
----------------------------------------
   Tot   -0.000000    0.000642    0.000000
----------------------------------------
   Max    0.219008
   Res    0.089754    sqrt( Sum f_i^2 / 3N )
----------------------------------------
   Max    0.219008    constrained

Stress tensor Voigt[x,y,z,yz,xz,xy] (kbar):        0.14        1.19       -0.11        0.00        0.00       -0.00
(Free)E + p*V (eV/cell)     -465.8743
Target enthalpy (eV/cell)     -465.8148

                     ====================================
                        Begin CG opt. move =      6
                     ====================================

outcell: Unit cell vectors (Ang):
        7.286412    0.000000    0.000000
        0.000000    5.746952    0.000000
        0.000000    0.000000    5.621012

outcell: Cell vector modules (Ang)   :    7.286412    5.746952    5.621012
outcell: Cell angles (23,13,12) (deg):     90.0000     90.0000     90.0000
outcell: Cell volume (Ang**3)        :    235.3780
<dSpData1D:S at geom step 6
  <sparsity:sparsity for geom step 6
    nrows_g=23 nrows=6 sparsity=.2609 nnzs=138, refcount: 7>
  <dData1D:(new from dSpData1D) n=138, refcount: 1>
refcount: 1>
new_DM -- step:     7
Re-using DM from previous geometries...
Number of DMs in history: 1
 DM extrapolation coefficients: 
1   1.00000
New DM after history re-use:
<dSpData2D:SpM extrapolated using coords
  <sparsity:sparsity for geom step 6
    nrows_g=23 nrows=6 sparsity=.2609 nnzs=138, refcount: 9>
  <dData2D:(temp array for extrapolation) n=138 m=1, refcount: 1>
refcount: 1>
Note: For starting DM, Qtot, Tr[D*S] =          8.00000000          8.00815617
No. of atoms with KB's overlaping orbs in proc 0. Max # of overlaps:       3      23

InitMesh: MESH = 80 x 60 x 60 = 288000
InitMesh: Mesh cutoff (required, used) =   300.000   301.251 Ry
New grid distribution [1]: sub = 2
New grid distribution [2]: sub = 2
New grid distribution [3]: sub = 2
Setting up quadratic distribution...

        iscf     Eharris(eV)        E_KS(eV)     FreeEng(eV)     dDmax    Ef(eV) dHmax(eV)
   scf:    1     -465.767554     -465.814972     -465.814972  0.009281 -2.125818  0.111383
   scf:    2     -465.812972     -465.814498     -465.814498  0.004685 -2.057091  0.181714
   scf:    3     -465.815425     -465.815178     -465.815178  0.002885 -2.100126  0.003852
   scf:    4     -465.815178     -465.815178     -465.815178  0.000072 -2.099562  0.002703
   scf:    5     -465.815179     -465.815178     -465.815178  0.000164 -2.098284  0.000152
   scf:    6     -465.815178     -465.815178     -465.815178  0.000001 -2.098282  0.000093

SCF Convergence by DM+H criterion
max |DM_out - DM_in|         :     0.0000010742
max |H_out - H_in|      (eV) :     0.0000931714
SCF cycle converged after 6 iterations

Using DM_out to compute the final energy and forces
No. of atoms with KB's overlaping orbs in proc 0. Max # of overlaps:       3      23

siesta: E_KS(eV) =             -465.8152

siesta: Atomic forces (eV/Ang):
----------------------------------------
   Tot   -0.000000    0.000608    0.000000
----------------------------------------
   Max    0.137203
   Res    0.072289    sqrt( Sum f_i^2 / 3N )
----------------------------------------
   Max    0.137203    constrained

Stress tensor Voigt[x,y,z,yz,xz,xy] (kbar):       -1.48       -0.02       -0.11        0.00       -0.00       -0.00
(Free)E + p*V (eV/cell)     -465.7359
Target enthalpy (eV/cell)     -465.8152

                     ====================================
                        Begin CG opt. move =      7
                     ====================================

outcell: Unit cell vectors (Ang):
        7.286412    0.000000    0.000000
        0.000000    5.746952    0.000000
        0.000000    0.000000    5.621012

outcell: Cell vector modules (Ang)   :    7.286412    5.746952    5.621012
outcell: Cell angles (23,13,12) (deg):     90.0000     90.0000     90.0000
outcell: Cell volume (Ang**3)        :    235.3780
<dSpData1D:S at geom step 7
  <sparsity:sparsity for geom step 7
    nrows_g=23 nrows=6 sparsity=.2609 nnzs=138, refcount: 7>
  <dData1D:(new from dSpData1D) n=138, refcount: 1>
refcount: 1>
new_DM -- step:     8
Re-using DM from previous geometries...
Number of DMs in history: 1
 DM extrapolation coefficients: 
1   1.00000
New DM after history re-use:
<dSpData2D:SpM extrapolated using coords
  <sparsity:sparsity for geom step 7
    nrows_g=23 nrows=6 sparsity=.2609 nnzs=138, refcount: 9>
  <dData2D:(temp array for extrapolation) n=138 m=1, refcount: 1>
refcount: 1>
No. of atoms with KB's overlaping orbs in proc 0. Max # of overlaps:       3      23

InitMesh: MESH = 80 x 60 x 60 = 288000
InitMesh: Mesh cutoff (required, used) =   300.000   301.251 Ry
New grid distribution [1]: sub = 2
New grid distribution [2]: sub = 2
New grid distribution [3]: sub = 2
Setting up quadratic distribution...

        iscf     Eharris(eV)        E_KS(eV)     FreeEng(eV)     dDmax    Ef(eV) dHmax(eV)
   scf:    1     -465.831252     -465.815290     -465.815290  0.003125 -2.099053  0.037320
   scf:    2     -465.815066     -465.815237     -465.815237  0.001582 -2.122076  0.060942
   scf:    3     -465.815342     -465.815314     -465.815314  0.000976 -2.107648  0.001275
   scf:    4     -465.815314     -465.815314     -465.815314  0.000024 -2.107831  0.000915

SCF Convergence by DM+H criterion
max |DM_out - DM_in|         :     0.0000242628
max |H_out - H_in|      (eV) :     0.0009146823
SCF cycle converged after 4 iterations

Using DM_out to compute the final energy and forces
No. of atoms with KB's overlaping orbs in proc 0. Max # of overlaps:       3      23

siesta: E_KS(eV) =             -465.8153

siesta: Atomic forces (eV/Ang):
----------------------------------------
   Tot    0.000000    0.001231   -0.000000
----------------------------------------
   Max    0.083907
   Res    0.040515    sqrt( Sum f_i^2 / 3N )
----------------------------------------
   Max    0.083907    constrained

Stress tensor Voigt[x,y,z,yz,xz,xy] (kbar):       -0.93        0.39       -0.11        0.00       -0.00       -0.00
(Free)E + p*V (eV/cell)     -465.7834
Target enthalpy (eV/cell)     -465.8153

cgvc: Finished line minimization    3.  Mean atomic displacement =    0.0079

                     ====================================
                        Begin CG opt. move =      8
                     ====================================

outcell: Unit cell vectors (Ang):
        7.286412    0.000000    0.000000
        0.000000    5.746952    0.000000
        0.000000    0.000000    5.621012

outcell: Cell vector modules (Ang)   :    7.286412    5.746952    5.621012
outcell: Cell angles (23,13,12) (deg):     90.0000     90.0000     90.0000
outcell: Cell volume (Ang**3)        :    235.3780
<dSpData1D:S at geom step 8
  <sparsity:sparsity for geom step 8
    nrows_g=23 nrows=6 sparsity=.2609 nnzs=138, refcount: 7>
  <dData1D:(new from dSpData1D) n=138, refcount: 1>
refcount: 1>
new_DM -- step:     9
Re-using DM from previous geometries...
Number of DMs in history: 1
 DM extrapolation coefficients: 
1   1.00000
New DM after history re-use:
<dSpData2D:SpM extrapolated using coords
  <sparsity:sparsity for geom step 8
    nrows_g=23 nrows=6 sparsity=.2609 nnzs=138, refcount: 9>
  <dData2D:(temp array for extrapolation) n=138 m=1, refcount: 1>
refcount: 1>
No. of atoms with KB's overlaping orbs in proc 0. Max # of overlaps:       3      23

InitMesh: MESH = 80 x 60 x 60 = 288000
InitMesh: Mesh cutoff (required, used) =   300.000   301.251 Ry
New grid distribution [1]: sub = 2
New grid distribution [2]: sub = 2
New grid distribution [3]: sub = 2
Setting up quadratic distribution...

        iscf     Eharris(eV)        E_KS(eV)     FreeEng(eV)     dDmax    Ef(eV) dHmax(eV)
   scf:    1     -465.828031     -465.815726     -465.815726  0.005271 -2.079112  0.036014
   scf:    2     -465.815614     -465.815707     -465.815707  0.001290 -2.057086  0.048475
   scf:    3     -465.815767     -465.815751     -465.815751  0.000781 -2.070154  0.003550
   scf:    4     -465.815752     -465.815752     -465.815752  0.000048 -2.069964  0.002491
   scf:    5     -465.815753     -465.815752     -465.815752  0.000091 -2.069658  0.000461

SCF Convergence by DM+H criterion
max |DM_out - DM_in|         :     0.0000912960
max |H_out - H_in|      (eV) :     0.0004606080
SCF cycle converged after 5 iterations

Using DM_out to compute the final energy and forces
No. of atoms with KB's overlaping orbs in proc 0. Max # of overlaps:       3      23

siesta: E_KS(eV) =             -465.8158

siesta: Atomic forces (eV/Ang):
----------------------------------------
   Tot   -0.000000    0.000372    0.000000
----------------------------------------
   Max    0.005538
   Res    0.002413    sqrt( Sum f_i^2 / 3N )
----------------------------------------
   Max    0.005538    constrained

Stress tensor Voigt[x,y,z,yz,xz,xy] (kbar):       -0.08        0.31       -0.11       -0.00        0.00       -0.00
(Free)E + p*V (eV/cell)     -465.8217
Target enthalpy (eV/cell)     -465.8158

outcoor: Relaxed atomic coordinates (Ang):                  
    0.00000000   -0.00108112    0.00000000   1       1  O
    0.77307680    0.58658687   -0.00000000   2       2  H
   -0.77307680    0.58658687   -0.00000000   2       3  H

coxmol: Writing XMOL coordinates into file h2o.xyz                                                             

siesta: Program's energy decomposition (eV):
siesta: Ebs     =      -103.497217
siesta: Eions   =       815.854478
siesta: Ena     =       175.054259
siesta: Ekin    =       352.314946
siesta: Enl     =       -62.447578
siesta: Eso     =         0.000000
siesta: Edftu   =         0.000000
siesta: DEna    =        -2.781811
siesta: DUscf   =         0.751118
siesta: DUext   =         0.000000
siesta: Ex      =      -100.256941
siesta: Ec      =       -12.595266
siesta: Exc     =      -112.852207
siesta: eta*DQ  =         0.000000
siesta: Emadel  =         0.000000
siesta: Emeta   =         0.000000
siesta: Emolmec =         0.000000
siesta: Ekinion =         0.000000
siesta: Eharris =      -465.815753
siesta: Etot    =      -465.815752
siesta: FreeEng =      -465.815752

siesta: Final energy (eV):
siesta:  Band Struct. =    -103.497217
siesta:       Kinetic =     352.314946
siesta:       Hartree =     383.079330
siesta:       Edftu   =       0.000000
siesta:       Eso     =       0.000000
siesta:    Ext. field =       0.000000
siesta:         Exch. =    -100.256941
siesta:         Corr. =     -12.595266
siesta:   Exch.-corr. =    -112.852207
siesta:  Ion-electron =   -1074.109414
siesta:       Ion-ion =     -14.248407
siesta:       Ekinion =       0.000000
siesta:         Total =    -465.815752
siesta:         Fermi =      -2.069658

siesta: Stress tensor (static) (eV/Ang**3):
siesta:    -0.000049   -0.000000    0.000000
siesta:    -0.000000    0.000196   -0.000000
siesta:     0.000000   -0.000000   -0.000072

siesta: Cell volume =        235.378012 Ang**3

siesta: Pressure (static):
siesta:                Solid            Molecule  Units
siesta:          -0.00000028         -0.00000027  Ry/Bohr**3
siesta:          -0.00002527         -0.00002524  eV/Ang**3
siesta:          -0.04048559         -0.04044518  kBar
(Free)E+ p_basis*V_orbitals  =        -465.230585
(Free)Eharris+ p_basis*V_orbitals  =        -465.230586

siesta: Electric dipole (a.u.)  =   -0.000000    0.555242    0.000000
siesta: Electric dipole (Debye) =   -0.000000    1.411285    0.000000

cite: Please see "h2o.bib" for an exhaustive BiBTeX file.
cite: Please clearly indicate Siesta version in published work: 5.0.0-alpha-6-g46a0c9063
cite: This calculation has made use of the following articles
cite: which are encouraged to be cited in a published work.
        Primary SIESTA paper
          DOI: www.doi.org/10.1088/0953-8984/14/11/302


>> End of run:  30-APR-2021   9:45:01
Job completed
