Siesta Version  : 4.1.5
Architecture    : unknown
Compiler version: ifort (IFORT) 19.0.5.281 20190815
Compiler flags  : mpiifort -O2 -xhost -ip -fPIC -fp-model source
PP flags        : -DFC_HAVE_ABORT -DMPI -DCDF -DNCDF -DNCDF_4 -DGRID_DP -DPHI_GRID_SP
Libraries       : libncdf.a libfdict.a -L/scratch/scicomp/easybuild/CentOS/7.3.1611/Haswell/sofftware/netCDF-Fortran/4.5.2-iimpi-2019b/lib -lnetcdff -L/scratch/scicomp/easybuild/CentOS/7.3.1611/Haswell/software/cURL/7.66.0-GCCcore-8.3.0/lib -lcurl -L/scratch/scicomp/easybuild/CentOS/7.3.1611/Haswell/software/netCDF/4.7.1-iimpi-2019b/lib64 -lnetcdf -L/scratch/scicomp/easybuild/CentOS/7.3.1611/Haswell/software/HDF5/1.10.5-iimpi-2019b/lib -lhdf5hl_fortran -lhdf5_fortran -lhdf5_hl -lhdf5 -L/scratch/scicomp/easybuild/CentOS/7.3.1611/Haswell/software/imkl/2019.5.281-iimpi-2019b/mkl/lib/intel64 -lmkl_scalapack_lp64 -lmkl_intel_lp64 -lmkl_intel_thread -lmkl_core -lmkl_blacs_intelmpi_lp64 -liomp5 -lpthread -lm -ldl
PARALLEL version
NetCDF support
NetCDF-4 support

* Running on 16 nodes in parallel
>> Start of run:  12-JUL-2021  13:28:44

                           ***********************       
                           *  WELCOME TO SIESTA  *       
                           ***********************       

reinit: Reading from RUN.fdf

reinit: -----------------------------------------------------------------------
reinit: System Name: 
reinit: -----------------------------------------------------------------------
reinit: System Label: dbdt
reinit: -----------------------------------------------------------------------

initatom: Reading input for the pseudopotentials and atomic orbitals ----------
Species number:   1 Atomic number:    6 Label: C
Species number:   2 Atomic number:    1 Label: H
Species number:   3 Atomic number:   16 Label: S
Species number:   4 Atomic number:    7 Label: N
Species number:   5 Atomic number:    8 Label: O
 
Ground state valence configuration:   2s02  2p02
Reading pseudopotential information in formatted form from C.psf

Pseudopotential generated from a relativistic atomic calculation

Valence configuration for pseudopotential generation:
2s( 2.00) rc: 1.25
2p( 2.00) rc: 1.25
3d( 0.00) rc: 1.98
4f( 0.00) rc: 1.98
Ground state valence configuration:   1s01
Reading pseudopotential information in formatted form from H.psf

Valence configuration for pseudopotential generation:
1s( 1.00) rc: 1.25
2p( 0.00) rc: 1.25
3d( 0.00) rc: 1.25
4f( 0.00) rc: 1.25
Ground state valence configuration:   3s02  3p04
Reading pseudopotential information in formatted form from S.psf

Valence configuration for pseudopotential generation:
3s( 2.00) rc: 1.61
3p( 4.00) rc: 1.76
3d( 0.00) rc: 1.92
4f( 0.00) rc: 1.92
Ground state valence configuration:   2s02  2p03
Reading pseudopotential information in formatted form from N.psf

Valence configuration for pseudopotential generation:
2s( 2.00) rc: 1.48
2p( 3.00) rc: 1.48
3d( 0.00) rc: 1.48
4f( 0.00) rc: 1.48
Ground state valence configuration:   2s02  2p04
Reading pseudopotential information in formatted form from O.psf

Valence configuration for pseudopotential generation:
2s( 2.00) rc: 1.47
2p( 4.00) rc: 1.47
3d( 0.00) rc: 1.47
4f( 0.00) rc: 1.47
For C, standard SIESTA heuristics set lmxkb to 3
 (one more than the basis l, including polarization orbitals).
Use PS.lmax or PS.KBprojectors blocks to override.
For H, standard SIESTA heuristics set lmxkb to 2
 (one more than the basis l, including polarization orbitals).
Use PS.lmax or PS.KBprojectors blocks to override.
For S, standard SIESTA heuristics set lmxkb to 3
 (one more than the basis l, including polarization orbitals).
Use PS.lmax or PS.KBprojectors blocks to override.
For N, standard SIESTA heuristics set lmxkb to 3
 (one more than the basis l, including polarization orbitals).
Use PS.lmax or PS.KBprojectors blocks to override.
For O, standard SIESTA heuristics set lmxkb to 3
 (one more than the basis l, including polarization orbitals).
Use PS.lmax or PS.KBprojectors blocks to override.

<basis_specs>
===============================================================================
C                    Z=   6    Mass=  12.010        Charge= 0.17977+309
Lmxo=1 Lmxkb= 3    BasisType=split      Semic=F
L=0  Nsemic=0  Cnfigmx=2
          i=1  nzeta=2  polorb=0  (2s)
            splnorm:   0.15000    
               vcte:    0.0000    
               rinn:    0.0000    
               qcoe:    0.0000    
               qyuk:    0.0000    
               qwid:   0.10000E-01
                rcs:    0.0000      0.0000    
            lambdas:    1.0000      1.0000    
L=1  Nsemic=0  Cnfigmx=2
          i=1  nzeta=2  polorb=1  (2p)
            splnorm:   0.15000    
               vcte:    0.0000    
               rinn:    0.0000    
               qcoe:    0.0000    
               qyuk:    0.0000    
               qwid:   0.10000E-01
                rcs:    0.0000      0.0000    
            lambdas:    1.0000      1.0000    
-------------------------------------------------------------------------------
L=0  Nkbl=1  erefs: 0.17977+309
L=1  Nkbl=1  erefs: 0.17977+309
L=2  Nkbl=1  erefs: 0.17977+309
L=3  Nkbl=1  erefs: 0.17977+309
===============================================================================
</basis_specs>

atom: Called for C                     (Z =   6)

read_vps: Pseudopotential generation method:
read_vps: ATM3      Troullier-Martins                       
Valence charge for ps generation:    4.00000

xc_check: Exchange-correlation functional:
xc_check: GGA Perdew, Burke & Ernzerhof 1996
V l=0 = -2*Zval/r beyond r=  1.5418
V l=1 = -2*Zval/r beyond r=  1.5418
V l=2 = -2*Zval/r beyond r=  1.9553
V l=3 = -2*Zval/r beyond r=  1.9310
All V_l potentials equal beyond r=  1.9310
This should be close to max(r_c) in ps generation
All pots = -2*Zval/r beyond r=  1.9553

VLOCAL1: 99.0% of the norm of Vloc inside     11.642 Ry
VLOCAL1: 99.9% of the norm of Vloc inside     26.531 Ry
atom: Maximum radius for 4*pi*r*r*local-pseudopot. charge    2.30035
atom: Maximum radius for r*vlocal+2*Zval:    2.00478
GHOST: No ghost state for L =  0
GHOST: No ghost state for L =  1
GHOST: No ghost state for L =  2
GHOST: No ghost state for L =  3

KBgen: Kleinman-Bylander projectors: 
   l= 0   rc=  2.134104   el= -1.010225   Ekb= 11.465766   kbcos=  0.116141
   l= 1   rc=  2.107589   el= -0.388560   Ekb= -6.457899   kbcos= -0.368830
   l= 2   rc=  2.300349   el=  0.001971   Ekb= -0.774314   kbcos= -0.017397
   l= 3   rc=  2.542323   el=  0.003065   Ekb= -0.308789   kbcos= -0.003148

KBgen: Total number of Kleinman-Bylander projectors:   16
atom: -------------------------------------------------------------------------

atom: SANKEY-TYPE ORBITALS:
atom: Selected multiple-zeta basis: split     

SPLIT: Orbitals with angular momentum L= 0

SPLIT: Basis orbitals for state 2s

SPLIT: PAO cut-off radius determined from an
SPLIT: energy shift=  0.010000 Ry

   izeta = 1
                 lambda =    1.000000
                     rc =    4.518360
                 energy =   -1.000924
                kinetic =    0.901832
    potential(screened) =   -1.902756
       potential(ionic) =   -5.483597

   izeta = 2
                 rmatch =    3.431921
              splitnorm =    0.150000
                 energy =   -0.864009
                kinetic =    1.380864
    potential(screened) =   -2.244873
       potential(ionic) =   -6.058854

SPLIT: Orbitals with angular momentum L= 1

SPLIT: Basis orbitals for state 2p

SPLIT: PAO cut-off radius determined from an
SPLIT: energy shift=  0.010000 Ry

   izeta = 1
                 lambda =    1.000000
                     rc =    5.518829
                 energy =   -0.379580
                kinetic =    2.483773
    potential(screened) =   -2.863354
       potential(ionic) =   -6.317858

   izeta = 2
                 rmatch =    3.607901
              splitnorm =    0.150000
                 energy =   -0.233312
                kinetic =    3.744417
    potential(screened) =   -3.977729
       potential(ionic) =   -7.820633

POLgen: Perturbative polarization orbital with L=  2

POLgen: Polarization orbital for state 2p

   izeta = 1
                     rc =    5.518829
                 energy =    1.134118
                kinetic =    2.331218
    potential(screened) =   -1.197099
       potential(ionic) =   -4.032010
atom: Total number of Sankey-type orbitals: 13

atm_pop: Valence configuration (for local Pseudopot. screening):
 2s( 2.00)                                                            
 2p( 2.00)                                                            
Vna: chval, zval:    4.00000   4.00000

Vna:  Cut-off radius for the neutral-atom potential:   5.518829

atom: _________________________________________________________________________

<basis_specs>
===============================================================================
H                    Z=   1    Mass=  1.0100        Charge= 0.17977+309
Lmxo=0 Lmxkb= 2    BasisType=split      Semic=F
L=0  Nsemic=0  Cnfigmx=1
          i=1  nzeta=2  polorb=1  (1s)
            splnorm:   0.15000    
               vcte:    0.0000    
               rinn:    0.0000    
               qcoe:    0.0000    
               qyuk:    0.0000    
               qwid:   0.10000E-01
                rcs:    0.0000      0.0000    
            lambdas:    1.0000      1.0000    
-------------------------------------------------------------------------------
L=0  Nkbl=1  erefs: 0.17977+309
L=1  Nkbl=1  erefs: 0.17977+309
L=2  Nkbl=1  erefs: 0.17977+309
===============================================================================
</basis_specs>

atom: Called for H                     (Z =   1)

read_vps: Pseudopotential generation method:
read_vps: ATM3      Troullier-Martins                       
Valence charge for ps generation:    1.00000

xc_check: Exchange-correlation functional:
xc_check: GGA Perdew, Burke & Ernzerhof 1996
V l=0 = -2*Zval/r beyond r=  1.2343
V l=1 = -2*Zval/r beyond r=  1.2189
V l=2 = -2*Zval/r beyond r=  1.2189
All V_l potentials equal beyond r=  1.2343
This should be close to max(r_c) in ps generation
All pots = -2*Zval/r beyond r=  1.2343

VLOCAL1: 99.0% of the norm of Vloc inside     28.493 Ry
VLOCAL1: 99.9% of the norm of Vloc inside     64.935 Ry
atom: Maximum radius for 4*pi*r*r*local-pseudopot. charge    1.45251
atom: Maximum radius for r*vlocal+2*Zval:    1.21892
GHOST: No ghost state for L =  0
GHOST: No ghost state for L =  1
GHOST: No ghost state for L =  2

KBgen: Kleinman-Bylander projectors: 
   l= 0   rc=  1.364359   el= -0.477200   Ekb= -2.021939   kbcos= -0.344793
   l= 1   rc=  1.434438   el=  0.001076   Ekb= -0.443447   kbcos= -0.022843
   l= 2   rc=  1.470814   el=  0.002010   Ekb= -0.140543   kbcos= -0.002863

KBgen: Total number of Kleinman-Bylander projectors:    9
atom: -------------------------------------------------------------------------

atom: SANKEY-TYPE ORBITALS:
atom: Selected multiple-zeta basis: split     

SPLIT: Orbitals with angular momentum L= 0

SPLIT: Basis orbitals for state 1s

SPLIT: PAO cut-off radius determined from an
SPLIT: energy shift=  0.010000 Ry

   izeta = 1
                 lambda =    1.000000
                     rc =    5.204501
                 energy =   -0.466874
                kinetic =    0.935616
    potential(screened) =   -1.402489
       potential(ionic) =   -1.927169

   izeta = 2
                 rmatch =    3.903467
              splitnorm =    0.150000
                 energy =   -0.359380
                kinetic =    1.518080
    potential(screened) =   -1.877460
       potential(ionic) =   -2.426500

POLgen: Perturbative polarization orbital with L=  1

POLgen: Polarization orbital for state 1s

   izeta = 1
                     rc =    5.204501
                 energy =    0.666831
                kinetic =    1.331374
    potential(screened) =   -0.664544
       potential(ionic) =   -1.147060
atom: Total number of Sankey-type orbitals:  5

atm_pop: Valence configuration (for local Pseudopot. screening):
 1s( 1.00)                                                            
Vna: chval, zval:    1.00000   1.00000

Vna:  Cut-off radius for the neutral-atom potential:   5.204501

atom: _________________________________________________________________________

<basis_specs>
===============================================================================
S                    Z=  16    Mass=  32.070        Charge= 0.17977+309
Lmxo=1 Lmxkb= 3    BasisType=split      Semic=F
L=0  Nsemic=0  Cnfigmx=3
          i=1  nzeta=2  polorb=0  (3s)
            splnorm:   0.15000    
               vcte:    0.0000    
               rinn:    0.0000    
               qcoe:    0.0000    
               qyuk:    0.0000    
               qwid:   0.10000E-01
                rcs:    0.0000      0.0000    
            lambdas:    1.0000      1.0000    
L=1  Nsemic=0  Cnfigmx=3
          i=1  nzeta=2  polorb=1  (3p)
            splnorm:   0.15000    
               vcte:    0.0000    
               rinn:    0.0000    
               qcoe:    0.0000    
               qyuk:    0.0000    
               qwid:   0.10000E-01
                rcs:    0.0000      0.0000    
            lambdas:    1.0000      1.0000    
-------------------------------------------------------------------------------
L=0  Nkbl=1  erefs: 0.17977+309
L=1  Nkbl=1  erefs: 0.17977+309
L=2  Nkbl=1  erefs: 0.17977+309
L=3  Nkbl=1  erefs: 0.17977+309
===============================================================================
</basis_specs>

atom: Called for S                     (Z =  16)

read_vps: Pseudopotential generation method:
read_vps: ATM3      Troullier-Martins                       
Valence charge for ps generation:    6.00000

read_vps: Pseudopotential includes a core correction:
read_vps: Pseudo-core for xc-correction

xc_check: Exchange-correlation functional:
xc_check: GGA Perdew, Burke & Ernzerhof 1996
V l=0 = -2*Zval/r beyond r=  1.7157
V l=1 = -2*Zval/r beyond r=  1.7813
V l=2 = -2*Zval/r beyond r=  1.8962
V l=3 = -2*Zval/r beyond r=  1.8962
All V_l potentials equal beyond r=  1.8962
This should be close to max(r_c) in ps generation
All pots = -2*Zval/r beyond r=  1.8962

VLOCAL1: 99.0% of the norm of Vloc inside     12.073 Ry
VLOCAL1: 99.9% of the norm of Vloc inside     27.515 Ry
atom: Maximum radius for 4*pi*r*r*local-pseudopot. charge    2.28723
atom: Maximum radius for r*vlocal+2*Zval:    1.99338
GHOST: No ghost state for L =  0
GHOST: No ghost state for L =  1
GHOST: No ghost state for L =  2
GHOST: No ghost state for L =  3

KBgen: Kleinman-Bylander projectors: 
   l= 0   rc=  2.095595   el= -1.260012   Ekb=  7.575815   kbcos=  0.308447
   l= 1   rc=  2.148649   el= -0.516050   Ekb=  2.724996   kbcos=  0.294943
   l= 2   rc=  2.175677   el=  0.001998   Ekb= -2.719245   kbcos= -0.053867
   l= 3   rc=  2.345140   el=  0.003105   Ekb= -0.697074   kbcos= -0.004230

KBgen: Total number of Kleinman-Bylander projectors:   16
atom: -------------------------------------------------------------------------

atom: SANKEY-TYPE ORBITALS:
atom: Selected multiple-zeta basis: split     

SPLIT: Orbitals with angular momentum L= 0

SPLIT: Basis orbitals for state 3s

SPLIT: PAO cut-off radius determined from an
SPLIT: energy shift=  0.010000 Ry

   izeta = 1
                 lambda =    1.000000
                     rc =    4.492354
                 energy =   -1.250813
                kinetic =    0.862263
    potential(screened) =   -2.113076
       potential(ionic) =   -7.049145

   izeta = 2
                 rmatch =    3.542623
              splitnorm =    0.150000
                 energy =   -1.101385
                kinetic =    1.348349
    potential(screened) =   -2.449734
       potential(ionic) =   -7.617851

SPLIT: Orbitals with angular momentum L= 1

SPLIT: Basis orbitals for state 3p

SPLIT: PAO cut-off radius determined from an
SPLIT: energy shift=  0.010000 Ry

   izeta = 1
                 lambda =    1.000000
                     rc =    5.487008
                 energy =   -0.505927
                kinetic =    1.466567
    potential(screened) =   -1.972493
       potential(ionic) =   -6.575484

   izeta = 2
                 rmatch =    3.915221
              splitnorm =    0.150000
                 energy =   -0.360273
                kinetic =    2.141435
    potential(screened) =   -2.501708
       potential(ionic) =   -7.494304

POLgen: Perturbative polarization orbital with L=  2

POLgen: Polarization orbital for state 3p

   izeta = 1
                     rc =    5.487008
                 energy =    0.682800
                kinetic =    2.080389
    potential(screened) =   -1.397589
       potential(ionic) =   -5.571348
atom: Total number of Sankey-type orbitals: 13

atm_pop: Valence configuration (for local Pseudopot. screening):
 3s( 2.00)                                                            
 3p( 4.00)                                                            
Vna: chval, zval:    6.00000   6.00000

Vna:  Cut-off radius for the neutral-atom potential:   5.487008
comcore: Pseudo-core radius Rcore=  2.496399

atom: _________________________________________________________________________

<basis_specs>
===============================================================================
N                    Z=   7    Mass=  14.010        Charge= 0.17977+309
Lmxo=1 Lmxkb= 3    BasisType=split      Semic=F
L=0  Nsemic=0  Cnfigmx=2
          i=1  nzeta=2  polorb=0  (2s)
            splnorm:   0.15000    
               vcte:    0.0000    
               rinn:    0.0000    
               qcoe:    0.0000    
               qyuk:    0.0000    
               qwid:   0.10000E-01
                rcs:    0.0000      0.0000    
            lambdas:    1.0000      1.0000    
L=1  Nsemic=0  Cnfigmx=2
          i=1  nzeta=2  polorb=1  (2p)
            splnorm:   0.15000    
               vcte:    0.0000    
               rinn:    0.0000    
               qcoe:    0.0000    
               qyuk:    0.0000    
               qwid:   0.10000E-01
                rcs:    0.0000      0.0000    
            lambdas:    1.0000      1.0000    
-------------------------------------------------------------------------------
L=0  Nkbl=1  erefs: 0.17977+309
L=1  Nkbl=1  erefs: 0.17977+309
L=2  Nkbl=1  erefs: 0.17977+309
L=3  Nkbl=1  erefs: 0.17977+309
===============================================================================
</basis_specs>

atom: Called for N                     (Z =   7)

read_vps: Pseudopotential generation method:
read_vps: ATM3      Troullier-Martins                       
Valence charge for ps generation:    5.00000

read_vps: Pseudopotential includes a core correction:
read_vps: Pseudo-core for xc-correction

xc_check: Exchange-correlation functional:
xc_check: GGA Perdew, Burke & Ernzerhof 1996
V l=0 = -2*Zval/r beyond r=  1.4606
V l=1 = -2*Zval/r beyond r=  1.4606
V l=2 = -2*Zval/r beyond r=  1.4606
V l=3 = -2*Zval/r beyond r=  1.4606
All V_l potentials equal beyond r=  1.4606
This should be close to max(r_c) in ps generation
All pots = -2*Zval/r beyond r=  1.4606

VLOCAL1: 99.0% of the norm of Vloc inside     20.347 Ry
VLOCAL1: 99.9% of the norm of Vloc inside     46.372 Ry
atom: Maximum radius for 4*pi*r*r*local-pseudopot. charge    1.76189
atom: Maximum radius for r*vlocal+2*Zval:    1.53550
GHOST: No ghost state for L =  0
GHOST: No ghost state for L =  1
GHOST: No ghost state for L =  2
GHOST: No ghost state for L =  3

KBgen: Kleinman-Bylander projectors: 
   l= 0   rc=  1.634559   el= -1.363963   Ekb=  5.296955   kbcos=  0.335621
   l= 1   rc=  1.614250   el= -0.521451   Ekb= -5.259161   kbcos= -0.433408
   l= 2   rc=  1.718383   el=  0.001991   Ekb= -1.271464   kbcos= -0.007566
   l= 3   rc=  1.761893   el=  0.003093   Ekb= -0.494769   kbcos= -0.001015

KBgen: Total number of Kleinman-Bylander projectors:   16
atom: -------------------------------------------------------------------------

atom: SANKEY-TYPE ORBITALS:
atom: Selected multiple-zeta basis: split     

SPLIT: Orbitals with angular momentum L= 0

SPLIT: Basis orbitals for state 2s

SPLIT: PAO cut-off radius determined from an
SPLIT: energy shift=  0.010000 Ry

   izeta = 1
                 lambda =    1.000000
                     rc =    3.970931
                 energy =   -1.354621
                kinetic =    1.185116
    potential(screened) =   -2.539737
       potential(ionic) =   -8.071102

   izeta = 2
                 rmatch =    2.905100
              splitnorm =    0.150000
                 energy =   -1.170738
                kinetic =    1.788055
    potential(screened) =   -2.958794
       potential(ionic) =   -8.878231

SPLIT: Orbitals with angular momentum L= 1

SPLIT: Basis orbitals for state 2p

SPLIT: PAO cut-off radius determined from an
SPLIT: energy shift=  0.010000 Ry

   izeta = 1
                 lambda =    1.000000
                     rc =    4.850185
                 energy =   -0.512432
                kinetic =    3.459728
    potential(screened) =   -3.972161
       potential(ionic) =   -9.314889

   izeta = 2
                 rmatch =    3.016124
              splitnorm =    0.150000
                 energy =   -0.328673
                kinetic =    5.066839
    potential(screened) =   -5.395512
       potential(ionic) =  -11.318381

POLgen: Perturbative polarization orbital with L=  2

POLgen: Polarization orbital for state 2p

   izeta = 1
                     rc =    4.850185
                 energy =    1.640616
                kinetic =    3.329188
    potential(screened) =   -1.688572
       potential(ionic) =   -6.032080
atom: Total number of Sankey-type orbitals: 13

atm_pop: Valence configuration (for local Pseudopot. screening):
 2s( 2.00)                                                            
 2p( 3.00)                                                            
Vna: chval, zval:    5.00000   5.00000

Vna:  Cut-off radius for the neutral-atom potential:   4.850185
comcore: Pseudo-core radius Rcore=  1.554824

atom: _________________________________________________________________________

<basis_specs>
===============================================================================
O                    Z=   8    Mass=  16.000        Charge= 0.17977+309
Lmxo=1 Lmxkb= 3    BasisType=split      Semic=F
L=0  Nsemic=0  Cnfigmx=2
          i=1  nzeta=2  polorb=0  (2s)
            splnorm:   0.15000    
               vcte:    0.0000    
               rinn:    0.0000    
               qcoe:    0.0000    
               qyuk:    0.0000    
               qwid:   0.10000E-01
                rcs:    0.0000      0.0000    
            lambdas:    1.0000      1.0000    
L=1  Nsemic=0  Cnfigmx=2
          i=1  nzeta=2  polorb=1  (2p)
            splnorm:   0.15000    
               vcte:    0.0000    
               rinn:    0.0000    
               qcoe:    0.0000    
               qyuk:    0.0000    
               qwid:   0.10000E-01
                rcs:    0.0000      0.0000    
            lambdas:    1.0000      1.0000    
-------------------------------------------------------------------------------
L=0  Nkbl=1  erefs: 0.17977+309
L=1  Nkbl=1  erefs: 0.17977+309
L=2  Nkbl=1  erefs: 0.17977+309
L=3  Nkbl=1  erefs: 0.17977+309
===============================================================================
</basis_specs>

atom: Called for O                     (Z =   8)

read_vps: Pseudopotential generation method:
read_vps: ATM3      Troullier-Martins                       
Valence charge for ps generation:    6.00000

read_vps: Pseudopotential includes a core correction:
read_vps: Pseudo-core for xc-correction

xc_check: Exchange-correlation functional:
xc_check: GGA Perdew, Burke & Ernzerhof 1996
V l=0 = -2*Zval/r beyond r=  1.4482
V l=1 = -2*Zval/r beyond r=  1.4482
V l=2 = -2*Zval/r beyond r=  1.4482
V l=3 = -2*Zval/r beyond r=  1.4482
All V_l potentials equal beyond r=  1.4482
This should be close to max(r_c) in ps generation
All pots = -2*Zval/r beyond r=  1.4482

VLOCAL1: 99.0% of the norm of Vloc inside     20.696 Ry
VLOCAL1: 99.9% of the norm of Vloc inside     47.167 Ry
atom: Maximum radius for 4*pi*r*r*local-pseudopot. charge    1.74697
atom: Maximum radius for r*vlocal+2*Zval:    1.52250
GHOST: No ghost state for L =  0
GHOST: No ghost state for L =  1
GHOST: No ghost state for L =  2
GHOST: No ghost state for L =  3

KBgen: Kleinman-Bylander projectors: 
   l= 0   rc=  1.620715   el= -1.757696   Ekb=  4.880948   kbcos=  0.293490
   l= 1   rc=  1.600578   el= -0.664256   Ekb= -6.909822   kbcos= -0.499892
   l= 2   rc=  1.703827   el=  0.002031   Ekb= -1.539219   kbcos= -0.006778
   l= 3   rc=  1.746967   el=  0.003153   Ekb= -0.568983   kbcos= -0.000967

KBgen: Total number of Kleinman-Bylander projectors:   16
atom: -------------------------------------------------------------------------

atom: SANKEY-TYPE ORBITALS:
atom: Selected multiple-zeta basis: split     

SPLIT: Orbitals with angular momentum L= 0

SPLIT: Basis orbitals for state 2s

SPLIT: PAO cut-off radius determined from an
SPLIT: energy shift=  0.010000 Ry

   izeta = 1
                 lambda =    1.000000
                     rc =    3.562532
                 energy =   -1.748399
                kinetic =    1.566246
    potential(screened) =   -3.314644
       potential(ionic) =  -11.226748

   izeta = 2
                 rmatch =    2.510382
              splitnorm =    0.150000
                 energy =   -1.500881
                kinetic =    2.383646
    potential(screened) =   -3.884527
       potential(ionic) =  -12.394458

SPLIT: Orbitals with angular momentum L= 1

SPLIT: Basis orbitals for state 2p

SPLIT: PAO cut-off radius determined from an
SPLIT: energy shift=  0.010000 Ry

   izeta = 1
                 lambda =    1.000000
                     rc =    4.351355
                 energy =   -0.655119
                kinetic =    4.580853
    potential(screened) =   -5.235971
       potential(ionic) =  -12.870995

   izeta = 2
                 rmatch =    2.606321
              splitnorm =    0.150000
                 energy =   -0.413552
                kinetic =    6.669338
    potential(screened) =   -7.082890
       potential(ionic) =  -15.557652

POLgen: Perturbative polarization orbital with L=  2

POLgen: Polarization orbital for state 2p

   izeta = 1
                     rc =    4.351355
                 energy =    2.225694
                kinetic =    4.473409
    potential(screened) =   -2.247715
       potential(ionic) =   -8.402441
atom: Total number of Sankey-type orbitals: 13

atm_pop: Valence configuration (for local Pseudopot. screening):
 2s( 2.00)                                                            
 2p( 4.00)                                                            
Vna: chval, zval:    6.00000   6.00000

Vna:  Cut-off radius for the neutral-atom potential:   4.351355
comcore: Pseudo-core radius Rcore=  1.377587

atom: _________________________________________________________________________

prinput: Basis input ----------------------------------------------------------

PAO.BasisType split     

%block ChemicalSpeciesLabel
    1    6 C                       # Species index, atomic number, species label
    2    1 H                       # Species index, atomic number, species label
    3   16 S                       # Species index, atomic number, species label
    4    7 N                       # Species index, atomic number, species label
    5    8 O                       # Species index, atomic number, species label
%endblock ChemicalSpeciesLabel

%block PAO.Basis                 # Define Basis set
C                     2                    # Species label, number of l-shells
 n=2   0   2                         # n, l, Nzeta 
   4.518      3.432   
   1.000      1.000   
 n=2   1   2 P   1                   # n, l, Nzeta, Polarization, NzetaPol
   5.519      3.608   
   1.000      1.000   
H                     1                    # Species label, number of l-shells
 n=1   0   2 P   1                   # n, l, Nzeta, Polarization, NzetaPol
   5.205      3.903   
   1.000      1.000   
S                     2                    # Species label, number of l-shells
 n=3   0   2                         # n, l, Nzeta 
   4.492      3.543   
   1.000      1.000   
 n=3   1   2 P   1                   # n, l, Nzeta, Polarization, NzetaPol
   5.487      3.915   
   1.000      1.000   
N                     2                    # Species label, number of l-shells
 n=2   0   2                         # n, l, Nzeta 
   3.971      2.905   
   1.000      1.000   
 n=2   1   2 P   1                   # n, l, Nzeta, Polarization, NzetaPol
   4.850      3.016   
   1.000      1.000   
O                     2                    # Species label, number of l-shells
 n=2   0   2                         # n, l, Nzeta 
   3.563      2.510   
   1.000      1.000   
 n=2   1   2 P   1                   # n, l, Nzeta, Polarization, NzetaPol
   4.351      2.606   
   1.000      1.000   
%endblock PAO.Basis

prinput: ----------------------------------------------------------------------

Dumping basis to NetCDF file C.ion.nc
Dumping basis to NetCDF file H.ion.nc
Dumping basis to NetCDF file S.ion.nc
Dumping basis to NetCDF file N.ion.nc
Dumping basis to NetCDF file O.ion.nc
coor:   Atomic-coordinates input format  =     Cartesian coordinates
coor:                                          (in Angstroms)

siesta: Atomic coordinates (Bohr) and species
siesta:     18.89727   5.66918   5.66918  1        1
siesta:     20.22953   3.36164   5.66918  1        2
siesta:     22.89404   3.36164   5.66918  1        3
siesta:     24.22630   5.66918   5.66918  1        4
siesta:     22.89404   7.97672   5.66918  1        5
siesta:     20.22953   7.97672   5.66918  1        6
siesta:     19.18734   1.55653   5.66918  2        7
siesta:     23.93623   1.55653   5.66918  2        8
siesta:     23.93623   9.78183   5.66918  2        9
siesta:     27.62781   5.66918   5.66918  3       10
siesta:     30.16004   5.66918   5.66918  2       11
siesta:     18.83630  10.39961   5.66918  4       12
siesta:     16.53442  10.31118   5.66918  5       13
siesta:     20.06382  12.34888   5.66918  5       14
siesta:     16.07780   5.66918   5.66918  1       15
siesta:     14.74554   5.66918   7.97672  1       16
siesta:     12.08102   5.66918   7.97672  1       17
siesta:     10.74877   5.66918   5.66918  1       18
siesta:     12.08102   5.66918   3.36164  1       19
siesta:     14.74554   5.66918   3.36164  1       20
siesta:     15.78772   5.66918   9.78183  2       21
siesta:     11.03884   5.66918   9.78183  2       22
siesta:     11.03884   5.66918   1.55653  2       23
siesta:      7.34726   5.66918   5.66918  3       24
siesta:      4.81502   5.66918   5.66918  2       25
siesta:     16.13877   5.66918   0.93875  4       26
siesta:     18.44064   5.66918   1.02718  5       27
siesta:     14.91124   5.66918  -1.01052  5       28

siesta: System type = molecule  

initatomlists: Number of atoms, orbitals, and projectors:     28   300   392

siesta: ******************** Simulation parameters ****************************
siesta:
siesta: The following are some of the parameters of the simulation.
siesta: A complete list of the parameters used, including default values,
siesta: can be found in file out.fdf
siesta:
redata: Spin configuration                          = none
redata: Number of spin components                   = 1
redata: Time-Reversal Symmetry                      = T
redata: Spin spiral                                 = F
redata: Long output                                 =   F
redata: Number of Atomic Species                    =        5
redata: Charge density info will appear in .RHO file
redata: Write Mulliken Pop.                         = NO
redata: Matel table size (NRTAB)                    =     1024
redata: Mesh Cutoff                                 =   400.0000 Ry
redata: Net charge of the system                    =     0.0000 |e|
redata: Min. number of SCF Iter                     =        0
redata: Max. number of SCF Iter                     =      500
redata: SCF convergence failure will abort job
redata: SCF mix quantity                            = Hamiltonian
redata: Mix DM or H after convergence               =   F
redata: Recompute H after scf cycle                 =   F
redata: Mix DM in first SCF step                    =   T
redata: Write Pulay info on disk                    =   F
redata: New DM Occupancy tolerance                  = 0.000000000001
redata: No kicks to SCF
redata: DM Mixing Weight for Kicks                  =     0.5000
redata: Require Harris convergence for SCF          =   F
redata: Harris energy tolerance for SCF             =     0.000100 eV
redata: Require DM convergence for SCF              =   T
redata: DM tolerance for SCF                        =     0.000100
redata: Require EDM convergence for SCF             =   F
redata: EDM tolerance for SCF                       =     0.001000 eV
redata: Require H convergence for SCF               =   T
redata: Hamiltonian tolerance for SCF               =     0.000100 eV
redata: Require (free) Energy convergence for SCF   =   F
redata: (free) Energy tolerance for SCF             =     0.000100 eV
redata: Using Saved Data (generic)                  =   F
redata: Use continuation files for DM               =   F
redata: Neglect nonoverlap interactions             =   F
redata: Method of Calculation                       = Diagonalization
redata: Electronic Temperature                      =   299.9869 K
redata: Fix the spin of the system                  =   F
redata: Dynamics option                             = CG coord. optimization
redata: Variable cell                               =   F
redata: Use continuation files for CG               =   F
redata: Max atomic displ per move                   =     0.1058 Ang
redata: Maximum number of optimization moves        =     1000
redata: Force tolerance                             =     0.0100 eV/Ang
mix.SCF: Pulay mixing                            = Pulay
mix.SCF:    Variant                              = stable
mix.SCF:    History steps                        = 5
mix.SCF:    Linear mixing weight                 =     0.250000
mix.SCF:    Mixing weight                        =     0.250000
mix.SCF:    SVD condition                        = 0.1000E-07
redata: Save all siesta data in one NC              =   F
redata: ***********************************************************************

%block SCF.Mixers
  Pulay
%endblock SCF.Mixers

%block SCF.Mixer.Pulay
  # Mixing method
  method pulay
  variant stable

  # Mixing options
  weight 0.2500
  weight.linear 0.2500
  history 5
%endblock SCF.Mixer.Pulay
 
DM_history_depth set to one: no extrapolation allowed by default for geometry relaxation
Size of DM history Fstack: 1
Total number of electrons:   102.000000
Total ionic charge:   102.000000

* ProcessorY, Blocksize:    4  19


* Orbital distribution balance (max,min):    19    15

 Kpoints in:            1 . Kpoints trimmed:            1

siesta: k-grid: Number of k-points =     1
siesta: k-grid: Cutoff (effective) =    25.000 Ang
siesta: k-grid: Supercell and displacements
siesta: k-grid:    1   0   0      0.000
siesta: k-grid:    0   1   0      0.000
siesta: k-grid:    0   0   1      0.000
 
diag: Algorithm                                     = D&C
diag: Parallel over k                               =   F
diag: Use parallel 2D distribution                  =   T
diag: Parallel block-size                           = 19
diag: Parallel distribution                         =     4 x     4
diag: Used triangular part                          = Lower
diag: Absolute tolerance                            =  0.100E-15
diag: Orthogonalization factor                      =  0.100E-05
diag: Memory factor                                 =  1.0000
 
 
ts: **************************************************************
ts: Save H and S matrices                           =    F
ts: Save DM and EDM matrices                        =    F
ts: Only save the overlap matrix S                  =    F
ts: **************************************************************
 
************************ Begin: TS CHECKS AND WARNINGS ************************
************************ End: TS CHECKS AND WARNINGS **************************


                     ====================================
                        Begin CG opt. move =      0
                     ====================================

outcell: Unit cell vectors (Ang):
       50.000000    0.000000    0.000000
        0.000000   50.000000    0.000000
        0.000000    0.000000   50.000000

outcell: Cell vector modules (Ang)   :   50.000000   50.000000   50.000000
outcell: Cell angles (23,13,12) (deg):     90.0000     90.0000     90.0000
outcell: Cell volume (Ang**3)        : 125000.0000
<dSpData1D:S at geom step 0
  <sparsity:sparsity for geom step 0
    nrows_g=300 nrows=19 sparsity=.0617 nnzs=5552, refcount: 7>
  <dData1D:(new from dSpData1D) n=5552, refcount: 1>
refcount: 1>
new_DM -- step:     1
Initializing Density Matrix...
DM filled with atomic data:
<dSpData2D:DM initialized from atoms
  <sparsity:sparsity for geom step 0
    nrows_g=300 nrows=19 sparsity=.0617 nnzs=5552, refcount: 8>
  <dData2D:DM n=5552 m=1, refcount: 1>
refcount: 1>
No. of atoms with KB's overlaping orbs in proc 0. Max # of overlaps:      21     206
New grid distribution:   1
           1       1:  320    1:   80    1:   80
           2       1:  320    1:   80   81:  160
           3       1:  320    1:   80  161:  240
           4       1:  320    1:   80  241:  320
           5       1:  320   81:  160    1:   80
           6       1:  320   81:  160   81:  160
           7       1:  320   81:  160  161:  240
           8       1:  320   81:  160  241:  320
           9       1:  320  161:  240    1:   80
          10       1:  320  161:  240   81:  160
          11       1:  320  161:  240  161:  240
          12       1:  320  161:  240  241:  320
          13       1:  320  241:  320    1:   80
          14       1:  320  241:  320   81:  160
          15       1:  320  241:  320  161:  240
          16       1:  320  241:  320  241:  320

InitMesh: MESH =   640 x   640 x   640 =   262144000
InitMesh: (bp) =   320 x   320 x   320 =    32768000
InitMesh: Mesh cutoff (required, used) =   400.000   452.816 Ry
ExtMesh (bp) on 0 =   396 x   156 x   156 =     9637056
New grid distribution:   2
           1       1:   67   24:  320   21:   27
           2      59:  320    1:   23   27:  320
           3       1:   58    1:   23   28:  320
           4      60:  320    1:   21   15:   20
           5      62:  320   22:  320    1:   14
           6      68:  320   24:  320   45:  320
           7       1:   61   22:  320   14:   20
           8       1:   59    1:   21    1:   13
           9      62:  320   22:  320   15:   20
          10       1:   67   24:  320   28:  320
          11      60:  320    1:   21    1:   14
          12       1:   58    1:   23   21:   27
          13      68:  320   24:  320   21:   44
          14       1:   61   22:  320    1:   13
          15      59:  320    1:   23   21:   26
          16       1:   59    1:   21   14:   20
New grid distribution:   3
           1       1:   68   25:  320    1:   16
           2       1:  150   40:  320   29:  155
           3      55:  320    1:   39   38:  320
           4      61:  320    1:   24   16:   28
           5      69:  320   25:  320    1:   16
           6     151:  320   40:  320   29:  174
           7       1:   68   25:  320   17:   28
           8       1:   54    1:   39   29:   41
           9      69:  320   25:  320   17:   28
          10      61:  320    1:   24    1:   15
          11       1:   60    1:   24    1:   15
          12     151:  320   40:  320  175:  320
          13       1:   54    1:   39   42:  320
          14      55:  320    1:   39   29:   37
          15       1:  150   40:  320  156:  320
          16       1:   60    1:   24   16:   28
Setting up quadratic distribution...
ExtMesh (bp) on 0 =   143 x   373 x    83 =     4427137
PhiOnMesh: Number of (b)points on node 0 =               139293
PhiOnMesh: nlist on node 0 =               351529

stepf: Fermi-Dirac step function

siesta: Program's energy decomposition (eV):
siesta: Ebs     =     -1260.007307
siesta: Eions   =      6751.226950
siesta: Ena     =       885.491431
siesta: Ekin    =      3296.654218
siesta: Enl     =      -864.249255
siesta: Eso     =         0.000000
siesta: Edftu   =         0.000000
siesta: DEna    =       -70.133456
siesta: DUscf   =        23.596906
siesta: DUext   =         0.000000
siesta: Exc     =     -1462.406289
siesta: eta*DQ  =         0.000000
siesta: Emadel  =         0.000000
siesta: Emeta   =         0.000000
siesta: Emolmec =         0.000000
siesta: Ekinion =         0.000000
siesta: Eharris =     -4911.197536
siesta: Etot    =     -4942.273395
siesta: FreeEng =     -4942.273395

        iscf     Eharris(eV)        E_KS(eV)     FreeEng(eV)     dDmax    Ef(eV) dHmax(eV)
   scf:    1    -4911.197536    -4942.273395    -4942.273395  1.937621 -5.358650  7.950109
timer: Routine,Calls,Time,% = IterSCF        1      37.686  39.54
   scf:    2    -4956.222869    -4951.400024    -4951.400024  0.109486 -5.163285  2.625231
   scf:    3    -4952.466494    -4952.074421    -4952.074421  0.049650 -4.758534  0.767321
   scf:    4    -4952.258975    -4952.176905    -4952.176905  0.038832 -4.596976  0.285585
   scf:    5    -4952.205388    -4952.192944    -4952.192944  0.012213 -4.508917  0.100343
   scf:    6    -4952.195855    -4952.194540    -4952.194540  0.002628 -4.490939  0.034674
   scf:    7    -4952.195011    -4952.194801    -4952.194801  0.001784 -4.489125  0.017013
   scf:    8    -4952.194903    -4952.194855    -4952.194855  0.000623 -4.487131  0.005807
   scf:    9    -4952.194901    -4952.194880    -4952.194880  0.000503 -4.485725  0.003494
   scf:   10    -4952.194888    -4952.194884    -4952.194884  0.000249 -4.484366  0.000845
   scf:   11    -4952.194885    -4952.194885    -4952.194885  0.000059 -4.484078  0.000354
   scf:   12    -4952.194885    -4952.194885    -4952.194885  0.000040 -4.483994  0.000123
   scf:   13    -4952.194885    -4952.194885    -4952.194885  0.000009 -4.483975  0.000075

SCF Convergence by DM+H criterion
max |DM_out - DM_in|         :     0.0000087604
max |H_out - H_in|      (eV) :     0.0000753651
SCF cycle converged after 13 iterations

Using DM_out to compute the final energy and forces
No. of atoms with KB's overlaping orbs in proc 0. Max # of overlaps:      21     206

siesta: E_KS(eV) =            -4952.1949

siesta: E_KS - E_eggbox =     -4952.1949

siesta: Atomic forces (eV/Ang):
----------------------------------------
   Tot    0.002117    0.020697   -0.004764
----------------------------------------
   Max    1.988883
   Res    0.557989    sqrt( Sum f_i^2 / 3N )
----------------------------------------
   Max    1.988883    constrained

Stress tensor Voigt[x,y,z,yz,xz,xy] (kbar):       -0.11       -0.07       -0.07        0.00       -0.04       -0.04
(Free)E + p*V (eV/cell)    -4945.8693
Target enthalpy (eV/cell)    -4952.1949

                     ====================================
                        Begin CG opt. move =      1
                     ====================================

outcell: Unit cell vectors (Ang):
       50.000000    0.000000    0.000000
        0.000000   50.000000    0.000000
        0.000000    0.000000   50.000000

outcell: Cell vector modules (Ang)   :   50.000000   50.000000   50.000000
outcell: Cell angles (23,13,12) (deg):     90.0000     90.0000     90.0000
outcell: Cell volume (Ang**3)        : 125000.0000
<dSpData1D:S at geom step 1
  <sparsity:sparsity for geom step 1
    nrows_g=300 nrows=19 sparsity=.0617 nnzs=5552, refcount: 7>
  <dData1D:(new from dSpData1D) n=5552, refcount: 1>
refcount: 1>
new_DM -- step:     2
Re-using DM from previous geometries...
Number of DMs in history: 1
 DM extrapolation coefficients: 
1   1.00000
New DM after history re-use:
<dSpData2D:SpM extrapolated using coords
  <sparsity:sparsity for geom step 1
    nrows_g=300 nrows=19 sparsity=.0617 nnzs=5552, refcount: 9>
  <dData2D:(temp array for extrapolation) n=5552 m=1, refcount: 1>
refcount: 1>
Note: For starting DM, Qtot, Tr[D*S] =        102.00000000        101.76405299
No. of atoms with KB's overlaping orbs in proc 0. Max # of overlaps:      21     206
New grid distribution:   1
           1       1:  320    1:   80    1:   80
           2       1:  320    1:   80   81:  160
           3       1:  320    1:   80  161:  240
           4       1:  320    1:   80  241:  320
           5       1:  320   81:  160    1:   80
           6       1:  320   81:  160   81:  160
           7       1:  320   81:  160  161:  240
           8       1:  320   81:  160  241:  320
           9       1:  320  161:  240    1:   80
          10       1:  320  161:  240   81:  160
          11       1:  320  161:  240  161:  240
          12       1:  320  161:  240  241:  320
          13       1:  320  241:  320    1:   80
          14       1:  320  241:  320   81:  160
          15       1:  320  241:  320  161:  240
          16       1:  320  241:  320  241:  320

InitMesh: MESH =   640 x   640 x   640 =   262144000
InitMesh: (bp) =   320 x   320 x   320 =    32768000
InitMesh: Mesh cutoff (required, used) =   400.000   452.816 Ry
ExtMesh (bp) on 0 =   396 x   156 x   156 =     9637056
New grid distribution:   2
           1       1:   67   24:  320   21:   27
           2      59:  320    1:   23   27:  320
           3       1:   58    1:   23   28:  320
           4      60:  320    1:   21   15:   20
           5      62:  320   22:  320    1:   14
           6      68:  320   24:  320   45:  320
           7       1:   61   22:  320   14:   20
           8       1:   59    1:   21    1:   13
           9      62:  320   22:  320   15:   20
          10       1:   67   24:  320   28:  320
          11      60:  320    1:   21    1:   14
          12       1:   58    1:   23   21:   27
          13      68:  320   24:  320   21:   44
          14       1:   61   22:  320    1:   13
          15      59:  320    1:   23   21:   26
          16       1:   59    1:   21   14:   20
New grid distribution:   3
           1       1:   68   25:  320    1:   16
           2       1:  150   40:  320   29:  155
           3      55:  320    1:   39   38:  320
           4      61:  320    1:   24   16:   28
           5      69:  320   25:  320    1:   16
           6     151:  320   40:  320   29:  174
           7       1:   68   25:  320   17:   28
           8       1:   54    1:   39   29:   41
           9      69:  320   25:  320   17:   28
          10      61:  320    1:   24    1:   15
          11       1:   60    1:   24    1:   15
          12     151:  320   40:  320  175:  320
          13       1:   54    1:   39   42:  320
          14      55:  320    1:   39   29:   37
          15       1:  150   40:  320  156:  320
          16       1:   60    1:   24   16:   28
Setting up quadratic distribution...
ExtMesh (bp) on 0 =   143 x   373 x    83 =     4427137
PhiOnMesh: Number of (b)points on node 0 =               139293
PhiOnMesh: nlist on node 0 =               350301

        iscf     Eharris(eV)        E_KS(eV)     FreeEng(eV)     dDmax    Ef(eV) dHmax(eV)
   scf:    1    -4953.318795    -4951.566898    -4951.566898  0.125858 -4.453528  3.156506
   scf:    2    -4930.135059    -4945.212594    -4945.212916  0.255829 -4.352016 11.852177
   scf:    3    -4952.794100    -4952.185630    -4952.185630  0.249429 -4.524434  1.196809
   scf:    4    -4952.278978    -4952.244648    -4952.244648  0.019118 -4.459849  0.458490
   scf:    5    -4952.258168    -4952.254330    -4952.254330  0.008387 -4.390817  0.041510
   scf:    6    -4952.254938    -4952.254669    -4952.254669  0.002002 -4.543489  0.017256
   scf:    7    -4952.254883    -4952.254785    -4952.254785  0.001466 -4.539952  0.009569
   scf:    8    -4952.254826    -4952.254808    -4952.254808  0.000903 -4.538086  0.003066
   scf:    9    -4952.254811    -4952.254809    -4952.254809  0.000151 -4.537728  0.002594
   scf:   10    -4952.254811    -4952.254810    -4952.254810  0.000119 -4.537386  0.001295
   scf:   11    -4952.254810    -4952.254810    -4952.254810  0.000083 -4.537111  0.000478
   scf:   12    -4952.254810    -4952.254810    -4952.254810  0.000019 -4.537050  0.000307
   scf:   13    -4952.254810    -4952.254810    -4952.254810  0.000007 -4.537009  0.000078

SCF Convergence by DM+H criterion
max |DM_out - DM_in|         :     0.0000072858
max |H_out - H_in|      (eV) :     0.0000783412
SCF cycle converged after 13 iterations

Using DM_out to compute the final energy and forces
No. of atoms with KB's overlaping orbs in proc 0. Max # of overlaps:      21     206

siesta: E_KS(eV) =            -4952.2548

siesta: Atomic forces (eV/Ang):
----------------------------------------
   Tot    0.027731    0.053943    0.030701
----------------------------------------
   Max    1.742353
   Res    0.502884    sqrt( Sum f_i^2 / 3N )
----------------------------------------
   Max    1.742353    constrained

Stress tensor Voigt[x,y,z,yz,xz,xy] (kbar):        0.02       -0.01       -0.01        0.00       -0.01       -0.01
(Free)E + p*V (eV/cell)    -4952.0624
Target enthalpy (eV/cell)    -4952.2548

                     ====================================
                        Begin CG opt. move =      2
                     ====================================

outcell: Unit cell vectors (Ang):
       50.000000    0.000000    0.000000
        0.000000   50.000000    0.000000
        0.000000    0.000000   50.000000

outcell: Cell vector modules (Ang)   :   50.000000   50.000000   50.000000
outcell: Cell angles (23,13,12) (deg):     90.0000     90.0000     90.0000
outcell: Cell volume (Ang**3)        : 125000.0000
<dSpData1D:S at geom step 2
  <sparsity:sparsity for geom step 2
    nrows_g=300 nrows=19 sparsity=.0617 nnzs=5552, refcount: 7>
  <dData1D:(new from dSpData1D) n=5552, refcount: 1>
refcount: 1>
new_DM -- step:     3
Re-using DM from previous geometries...
Number of DMs in history: 1
 DM extrapolation coefficients: 
1   1.00000
New DM after history re-use:
<dSpData2D:SpM extrapolated using coords
  <sparsity:sparsity for geom step 2
    nrows_g=300 nrows=19 sparsity=.0617 nnzs=5552, refcount: 9>
  <dData2D:(temp array for extrapolation) n=5552 m=1, refcount: 1>
refcount: 1>
No. of atoms with KB's overlaping orbs in proc 0. Max # of overlaps:      21     206
New grid distribution:   1
           1       1:  320    1:   80    1:   80
           2       1:  320    1:   80   81:  160
           3       1:  320    1:   80  161:  240
           4       1:  320    1:   80  241:  320
           5       1:  320   81:  160    1:   80
           6       1:  320   81:  160   81:  160
           7       1:  320   81:  160  161:  240
           8       1:  320   81:  160  241:  320
           9       1:  320  161:  240    1:   80
          10       1:  320  161:  240   81:  160
          11       1:  320  161:  240  161:  240
          12       1:  320  161:  240  241:  320
          13       1:  320  241:  320    1:   80
          14       1:  320  241:  320   81:  160
          15       1:  320  241:  320  161:  240
          16       1:  320  241:  320  241:  320

InitMesh: MESH =   640 x   640 x   640 =   262144000
InitMesh: (bp) =   320 x   320 x   320 =    32768000
InitMesh: Mesh cutoff (required, used) =   400.000   452.816 Ry
ExtMesh (bp) on 0 =   396 x   156 x   156 =     9637056
New grid distribution:   2
           1       1:   67   24:  320   21:   27
           2      59:  320    1:   23   27:  320
           3       1:   58    1:   23   28:  320
           4      60:  320    1:   21   15:   20
           5      62:  320   22:  320    1:   14
           6      68:  320   24:  320   45:  320
           7       1:   61   22:  320   14:   20
           8       1:   59    1:   21    1:   13
           9      62:  320   22:  320   15:   20
          10       1:   67   24:  320   28:  320
          11      60:  320    1:   21    1:   14
          12       1:   58    1:   23   21:   27
          13      68:  320   24:  320   21:   44
          14       1:   61   22:  320    1:   13
          15      59:  320    1:   23   21:   26
          16       1:   59    1:   21   14:   20
New grid distribution:   3
           1       1:   68   25:  320    1:   16
           2       1:  150   40:  320   29:  155
           3      55:  320    1:   39   38:  320
           4      61:  320    1:   24   16:   28
           5      69:  320   25:  320    1:   16
           6     151:  320   40:  320   29:  174
           7       1:   68   25:  320   17:   28
           8       1:   54    1:   39   29:   41
           9      69:  320   25:  320   17:   28
          10      61:  320    1:   24    1:   15
          11       1:   60    1:   24    1:   15
          12     151:  320   40:  320  175:  320
          13       1:   54    1:   39   42:  320
          14      55:  320    1:   39   29:   37
          15       1:  150   40:  320  156:  320
          16       1:   60    1:   24   16:   28
Setting up quadratic distribution...
ExtMesh (bp) on 0 =   143 x   373 x    83 =     4427137
PhiOnMesh: Number of (b)points on node 0 =               139293
PhiOnMesh: nlist on node 0 =               350727

        iscf     Eharris(eV)        E_KS(eV)     FreeEng(eV)     dDmax    Ef(eV) dHmax(eV)
   scf:    1    -4950.740999    -4952.254067    -4952.254067  0.042966 -4.517076  1.153147
   scf:    2    -4950.421121    -4951.738962    -4951.738962  0.094384 -4.400592  3.243533
   scf:    3    -4952.432869    -4952.337880    -4952.337880  0.080074 -4.473230  0.207945
   scf:    4    -4952.340746    -4952.340080    -4952.340080  0.004626 -4.499052  0.027083
   scf:    5    -4952.340369    -4952.340241    -4952.340241  0.001073 -4.507901  0.009027
   scf:    6    -4952.340315    -4952.340282    -4952.340282  0.000910 -4.509321  0.004212
   scf:    7    -4952.340291    -4952.340287    -4952.340287  0.000356 -4.510002  0.001645
   scf:    8    -4952.340288    -4952.340287    -4952.340287  0.000071 -4.510201  0.001019
   scf:    9    -4952.340288    -4952.340288    -4952.340288  0.000090 -4.510435  0.000210
   scf:   10    -4952.340288    -4952.340288    -4952.340288  0.000011 -4.510468  0.000144
   scf:   11    -4952.340288    -4952.340288    -4952.340288  0.000009 -4.510495  0.000042

SCF Convergence by DM+H criterion
max |DM_out - DM_in|         :     0.0000085935
max |H_out - H_in|      (eV) :     0.0000418080
SCF cycle converged after 11 iterations

Using DM_out to compute the final energy and forces
No. of atoms with KB's overlaping orbs in proc 0. Max # of overlaps:      21     206

siesta: E_KS(eV) =            -4952.3403

siesta: Atomic forces (eV/Ang):
----------------------------------------
   Tot   -0.003593    0.056620    0.000510
----------------------------------------
   Max    0.621347
   Res    0.200931    sqrt( Sum f_i^2 / 3N )
----------------------------------------
   Max    0.621347    constrained

Stress tensor Voigt[x,y,z,yz,xz,xy] (kbar):       -0.03       -0.03       -0.03        0.00       -0.02       -0.02
(Free)E + p*V (eV/cell)    -4949.8670
Target enthalpy (eV/cell)    -4952.3403

cgvc: Finished line minimization    1.  Mean atomic displacement =    0.0223

                     ====================================
                        Begin CG opt. move =      3
                     ====================================

outcell: Unit cell vectors (Ang):
       50.000000    0.000000    0.000000
        0.000000   50.000000    0.000000
        0.000000    0.000000   50.000000

outcell: Cell vector modules (Ang)   :   50.000000   50.000000   50.000000
outcell: Cell angles (23,13,12) (deg):     90.0000     90.0000     90.0000
outcell: Cell volume (Ang**3)        : 125000.0000
<dSpData1D:S at geom step 3
  <sparsity:sparsity for geom step 3
    nrows_g=300 nrows=19 sparsity=.0617 nnzs=5552, refcount: 7>
  <dData1D:(new from dSpData1D) n=5552, refcount: 1>
refcount: 1>
new_DM -- step:     4
Re-using DM from previous geometries...
Number of DMs in history: 1
 DM extrapolation coefficients: 
1   1.00000
New DM after history re-use:
<dSpData2D:SpM extrapolated using coords
  <sparsity:sparsity for geom step 3
    nrows_g=300 nrows=19 sparsity=.0617 nnzs=5552, refcount: 9>
  <dData2D:(temp array for extrapolation) n=5552 m=1, refcount: 1>
refcount: 1>
No. of atoms with KB's overlaping orbs in proc 0. Max # of overlaps:      21     206
New grid distribution:   1
           1       1:  320    1:   80    1:   80
           2       1:  320    1:   80   81:  160
           3       1:  320    1:   80  161:  240
           4       1:  320    1:   80  241:  320
           5       1:  320   81:  160    1:   80
           6       1:  320   81:  160   81:  160
           7       1:  320   81:  160  161:  240
           8       1:  320   81:  160  241:  320
           9       1:  320  161:  240    1:   80
          10       1:  320  161:  240   81:  160
          11       1:  320  161:  240  161:  240
          12       1:  320  161:  240  241:  320
          13       1:  320  241:  320    1:   80
          14       1:  320  241:  320   81:  160
          15       1:  320  241:  320  161:  240
          16       1:  320  241:  320  241:  320

InitMesh: MESH =   640 x   640 x   640 =   262144000
InitMesh: (bp) =   320 x   320 x   320 =    32768000
InitMesh: Mesh cutoff (required, used) =   400.000   452.816 Ry
ExtMesh (bp) on 0 =   396 x   156 x   156 =     9637056
New grid distribution:   2
           1       1:   67   24:  320   21:   27
           2      59:  320    1:   23   27:  320
           3       1:   58    1:   23   28:  320
           4      60:  320    1:   21   15:   20
           5      62:  320   22:  320    1:   14
           6      68:  320   24:  320   45:  320
           7       1:   61   22:  320   14:   20
           8       1:   59    1:   21    1:   13
           9      62:  320   22:  320   15:   20
          10       1:   67   24:  320   28:  320
          11      60:  320    1:   21    1:   14
          12       1:   58    1:   23   21:   27
          13      68:  320   24:  320   21:   44
          14       1:   61   22:  320    1:   13
          15      59:  320    1:   23   21:   26
          16       1:   59    1:   21   14:   20
New grid distribution:   3
           1       1:   69   25:  320    1:   16
           2       1:  150   40:  320   29:  155
           3      55:  320    1:   39   38:  320
           4      61:  320    1:   24   16:   28
           5      70:  320   25:  320    1:   16
           6     151:  320   40:  320   29:  174
           7       1:   69   25:  320   17:   28
           8       1:   54    1:   39   29:   41
           9      70:  320   25:  320   17:   28
          10      61:  320    1:   24    1:   15
          11       1:   60    1:   24    1:   15
          12     151:  320   40:  320  175:  320
          13       1:   54    1:   39   42:  320
          14      55:  320    1:   39   29:   37
          15       1:  150   40:  320  156:  320
          16       1:   60    1:   24   16:   28
Setting up quadratic distribution...
ExtMesh (bp) on 0 =   143 x   373 x    83 =     4427137
PhiOnMesh: Number of (b)points on node 0 =               139293
PhiOnMesh: nlist on node 0 =               349766

        iscf     Eharris(eV)        E_KS(eV)     FreeEng(eV)     dDmax    Ef(eV) dHmax(eV)
   scf:    1    -4952.763006    -4952.334678    -4952.334678  0.038762 -4.521389  0.773727
   scf:    2    -4950.741636    -4951.882927    -4951.882927  0.042484 -4.494117  2.177397
   scf:    3    -4952.523871    -4952.396857    -4952.396857  0.031834 -4.482456  0.034780
   scf:    4    -4952.397381    -4952.397151    -4952.397151  0.000591 -4.487602  0.016485
   scf:    5    -4952.397278    -4952.397226    -4952.397226  0.000485 -4.490939  0.010301
   scf:    6    -4952.397239    -4952.397234    -4952.397234  0.000269 -4.491509  0.002836
   scf:    7    -4952.397237    -4952.397236    -4952.397236  0.000058 -4.491710  0.001651
   scf:    8    -4952.397237    -4952.397236    -4952.397236  0.000037 -4.491805  0.000833
   scf:    9    -4952.397237    -4952.397236    -4952.397236  0.000015 -4.491856  0.000274
   scf:   10    -4952.397236    -4952.397236    -4952.397236  0.000005 -4.491873  0.000114
   scf:   11    -4952.397236    -4952.397236    -4952.397236  0.000002 -4.491883  0.000042

SCF Convergence by DM+H criterion
max |DM_out - DM_in|         :     0.0000023063
max |H_out - H_in|      (eV) :     0.0000416597
SCF cycle converged after 11 iterations

Using DM_out to compute the final energy and forces
No. of atoms with KB's overlaping orbs in proc 0. Max # of overlaps:      21     206

siesta: E_KS(eV) =            -4952.3972

siesta: Atomic forces (eV/Ang):
----------------------------------------
   Tot   -0.045704    0.018430    0.003436
----------------------------------------
   Max    0.387013
   Res    0.167762    sqrt( Sum f_i^2 / 3N )
----------------------------------------
   Max    0.387013    constrained

Stress tensor Voigt[x,y,z,yz,xz,xy] (kbar):       -0.01       -0.02       -0.02        0.00       -0.01       -0.01
(Free)E + p*V (eV/cell)    -4951.0886
Target enthalpy (eV/cell)    -4952.3972

                     ====================================
                        Begin CG opt. move =      4
                     ====================================

outcell: Unit cell vectors (Ang):
       50.000000    0.000000    0.000000
        0.000000   50.000000    0.000000
        0.000000    0.000000   50.000000

outcell: Cell vector modules (Ang)   :   50.000000   50.000000   50.000000
outcell: Cell angles (23,13,12) (deg):     90.0000     90.0000     90.0000
outcell: Cell volume (Ang**3)        : 125000.0000
<dSpData1D:S at geom step 4
  <sparsity:sparsity for geom step 4
    nrows_g=300 nrows=19 sparsity=.0617 nnzs=5552, refcount: 7>
  <dData1D:(new from dSpData1D) n=5552, refcount: 1>
refcount: 1>
new_DM -- step:     5
Re-using DM from previous geometries...
Number of DMs in history: 1
 DM extrapolation coefficients: 
1   1.00000
New DM after history re-use:
<dSpData2D:SpM extrapolated using coords
  <sparsity:sparsity for geom step 4
    nrows_g=300 nrows=19 sparsity=.0617 nnzs=5552, refcount: 9>
  <dData2D:(temp array for extrapolation) n=5552 m=1, refcount: 1>
refcount: 1>
No. of atoms with KB's overlaping orbs in proc 0. Max # of overlaps:      21     206
New grid distribution:   1
           1       1:  320    1:   80    1:   80
           2       1:  320    1:   80   81:  160
           3       1:  320    1:   80  161:  240
           4       1:  320    1:   80  241:  320
           5       1:  320   81:  160    1:   80
           6       1:  320   81:  160   81:  160
           7       1:  320   81:  160  161:  240
           8       1:  320   81:  160  241:  320
           9       1:  320  161:  240    1:   80
          10       1:  320  161:  240   81:  160
          11       1:  320  161:  240  161:  240
          12       1:  320  161:  240  241:  320
          13       1:  320  241:  320    1:   80
          14       1:  320  241:  320   81:  160
          15       1:  320  241:  320  161:  240
          16       1:  320  241:  320  241:  320

InitMesh: MESH =   640 x   640 x   640 =   262144000
InitMesh: (bp) =   320 x   320 x   320 =    32768000
InitMesh: Mesh cutoff (required, used) =   400.000   452.816 Ry
ExtMesh (bp) on 0 =   396 x   156 x   156 =     9637056
New grid distribution:   2
           1       1:   67   24:  320   21:   27
           2      59:  320    1:   23   27:  320
           3       1:   58    1:   23   28:  320
           4      60:  320    1:   21   15:   20
           5      62:  320   22:  320    1:   14
           6      68:  320   24:  320   44:  320
           7       1:   61   22:  320   14:   20
           8       1:   59    1:   21    1:   13
           9      62:  320   22:  320   15:   20
          10       1:   67   24:  320   28:  320
          11      60:  320    1:   21    1:   14
          12       1:   58    1:   23   21:   27
          13      68:  320   24:  320   21:   43
          14       1:   61   22:  320    1:   13
          15      59:  320    1:   23   21:   26
          16       1:   59    1:   21   14:   20
New grid distribution:   3
           1       1:   69   25:  320    1:   16
           2       1:  150   40:  320   29:  155
           3      55:  320    1:   39   38:  320
           4      61:  320    1:   24   16:   28
           5      70:  320   25:  320    1:   16
           6     151:  320   40:  320   29:  174
           7       1:   69   25:  320   17:   28
           8       1:   54    1:   39   29:   41
           9      70:  320   25:  320   17:   28
          10      61:  320    1:   24    1:   15
          11       1:   60    1:   24    1:   15
          12     151:  320   40:  320  175:  320
          13       1:   54    1:   39   42:  320
          14      55:  320    1:   39   29:   37
          15       1:  150   40:  320  156:  320
          16       1:   60    1:   24   16:   28
Setting up quadratic distribution...
ExtMesh (bp) on 0 =   143 x   373 x    83 =     4427137
PhiOnMesh: Number of (b)points on node 0 =               139293
PhiOnMesh: nlist on node 0 =               348377

        iscf     Eharris(eV)        E_KS(eV)     FreeEng(eV)     dDmax    Ef(eV) dHmax(eV)
   scf:    1    -4952.624570    -4952.150846    -4952.150846  0.062509 -4.197852  1.252576
   scf:    2    -4947.949424    -4950.961671    -4950.961671  0.073637 -4.525513  3.520087
   scf:    3    -4952.658403    -4952.316763    -4952.316763  0.054009 -4.443720  0.054042
   scf:    4    -4952.318047    -4952.317494    -4952.317494  0.001052 -4.451439  0.029058
   scf:    5    -4952.317835    -4952.317697    -4952.317697  0.000808 -4.456551  0.017620
   scf:    6    -4952.317749    -4952.317729    -4952.317729  0.000391 -4.457919  0.004654
   scf:    7    -4952.317739    -4952.317734    -4952.317734  0.000108 -4.458513  0.002721
   scf:    8    -4952.317737    -4952.317736    -4952.317736  0.000054 -4.458723  0.001434
   scf:    9    -4952.317736    -4952.317736    -4952.317736  0.000033 -4.458854  0.000315
   scf:   10    -4952.317736    -4952.317736    -4952.317736  0.000008 -4.458884  0.000167
   scf:   11    -4952.317736    -4952.317736    -4952.317736  0.000002 -4.458894  0.000064

SCF Convergence by DM+H criterion
max |DM_out - DM_in|         :     0.0000022295
max |H_out - H_in|      (eV) :     0.0000637328
SCF cycle converged after 11 iterations

Using DM_out to compute the final energy and forces
No. of atoms with KB's overlaping orbs in proc 0. Max # of overlaps:      21     206

siesta: E_KS(eV) =            -4952.3177

siesta: Atomic forces (eV/Ang):
----------------------------------------
   Tot   -0.018743   -0.012165    0.015080
----------------------------------------
   Max    1.258189
   Res    0.435428    sqrt( Sum f_i^2 / 3N )
----------------------------------------
   Max    1.258189    constrained

Stress tensor Voigt[x,y,z,yz,xz,xy] (kbar):        0.02        0.00       -0.00        0.00       -0.00       -0.00
(Free)E + p*V (eV/cell)    -4952.7136
Target enthalpy (eV/cell)    -4952.3177

                     ====================================
                        Begin CG opt. move =      5
                     ====================================

outcell: Unit cell vectors (Ang):
       50.000000    0.000000    0.000000
        0.000000   50.000000    0.000000
        0.000000    0.000000   50.000000

outcell: Cell vector modules (Ang)   :   50.000000   50.000000   50.000000
outcell: Cell angles (23,13,12) (deg):     90.0000     90.0000     90.0000
outcell: Cell volume (Ang**3)        : 125000.0000
<dSpData1D:S at geom step 5
  <sparsity:sparsity for geom step 5
    nrows_g=300 nrows=19 sparsity=.0617 nnzs=5552, refcount: 7>
  <dData1D:(new from dSpData1D) n=5552, refcount: 1>
refcount: 1>
new_DM -- step:     6
Re-using DM from previous geometries...
Number of DMs in history: 1
 DM extrapolation coefficients: 
1   1.00000
New DM after history re-use:
<dSpData2D:SpM extrapolated using coords
  <sparsity:sparsity for geom step 5
    nrows_g=300 nrows=19 sparsity=.0617 nnzs=5552, refcount: 9>
  <dData2D:(temp array for extrapolation) n=5552 m=1, refcount: 1>
refcount: 1>
No. of atoms with KB's overlaping orbs in proc 0. Max # of overlaps:      21     206
New grid distribution:   1
           1       1:  320    1:   80    1:   80
           2       1:  320    1:   80   81:  160
           3       1:  320    1:   80  161:  240
           4       1:  320    1:   80  241:  320
           5       1:  320   81:  160    1:   80
           6       1:  320   81:  160   81:  160
           7       1:  320   81:  160  161:  240
           8       1:  320   81:  160  241:  320
           9       1:  320  161:  240    1:   80
          10       1:  320  161:  240   81:  160
          11       1:  320  161:  240  161:  240
          12       1:  320  161:  240  241:  320
          13       1:  320  241:  320    1:   80
          14       1:  320  241:  320   81:  160
          15       1:  320  241:  320  161:  240
          16       1:  320  241:  320  241:  320

InitMesh: MESH =   640 x   640 x   640 =   262144000
InitMesh: (bp) =   320 x   320 x   320 =    32768000
InitMesh: Mesh cutoff (required, used) =   400.000   452.816 Ry
ExtMesh (bp) on 0 =   396 x   156 x   156 =     9637056
New grid distribution:   2
           1       1:   67   24:  320   21:   27
           2      59:  320    1:   23   27:  320
           3       1:   58    1:   23   28:  320
           4      60:  320    1:   21   15:   20
           5      62:  320   22:  320    1:   14
           6      68:  320   24:  320   45:  320
           7       1:   61   22:  320   14:   20
           8       1:   59    1:   21    1:   13
           9      62:  320   22:  320   15:   20
          10       1:   67   24:  320   28:  320
          11      60:  320    1:   21    1:   14
          12       1:   58    1:   23   21:   27
          13      68:  320   24:  320   21:   44
          14       1:   61   22:  320    1:   13
          15      59:  320    1:   23   21:   26
          16       1:   59    1:   21   14:   20
New grid distribution:   3
           1       1:   69   25:  320    1:   16
           2       1:  150   40:  320   29:  155
           3      55:  320    1:   39   38:  320
           4      61:  320    1:   24   16:   28
           5      70:  320   25:  320    1:   16
           6     151:  320   40:  320   29:  174
           7       1:   69   25:  320   17:   28
           8       1:   54    1:   39   29:   41
           9      70:  320   25:  320   17:   28
          10      61:  320    1:   24    1:   15
          11       1:   60    1:   24    1:   15
          12     151:  320   40:  320  175:  320
          13       1:   54    1:   39   42:  320
          14      55:  320    1:   39   29:   37
          15       1:  150   40:  320  156:  320
          16       1:   60    1:   24   16:   28
Setting up quadratic distribution...
ExtMesh (bp) on 0 =   143 x   373 x    83 =     4427137
PhiOnMesh: Number of (b)points on node 0 =               139293
PhiOnMesh: nlist on node 0 =               349682

        iscf     Eharris(eV)        E_KS(eV)     FreeEng(eV)     dDmax    Ef(eV) dHmax(eV)
   scf:    1    -4951.271631    -4952.277954    -4952.277954  0.053846 -4.492363  1.072421
   scf:    2    -4949.066436    -4951.361139    -4951.361139  0.069495 -4.421433  3.059326
   scf:    3    -4952.636031    -4952.397634    -4952.397634  0.057410 -4.534899  0.069494
   scf:    4    -4952.398670    -4952.398367    -4952.398367  0.002662 -4.527388  0.043058
   scf:    5    -4952.398651    -4952.398545    -4952.398545  0.001180 -4.524593  0.013169
   scf:    6    -4952.398636    -4952.398597    -4952.398597  0.000407 -4.521897  0.004696
   scf:    7    -4952.398605    -4952.398601    -4952.398601  0.000129 -4.521293  0.002485
   scf:    8    -4952.398604    -4952.398603    -4952.398603  0.000057 -4.521196  0.001200
   scf:    9    -4952.398603    -4952.398603    -4952.398603  0.000030 -4.521105  0.000496
   scf:   10    -4952.398603    -4952.398603    -4952.398603  0.000010 -4.521062  0.000208
   scf:   11    -4952.398603    -4952.398603    -4952.398603  0.000005 -4.521040  0.000066

SCF Convergence by DM+H criterion
max |DM_out - DM_in|         :     0.0000046113
max |H_out - H_in|      (eV) :     0.0000656642
SCF cycle converged after 11 iterations

Using DM_out to compute the final energy and forces
No. of atoms with KB's overlaping orbs in proc 0. Max # of overlaps:      21     206

siesta: E_KS(eV) =            -4952.3986

siesta: Atomic forces (eV/Ang):
----------------------------------------
   Tot   -0.054568    0.021101   -0.008369
----------------------------------------
   Max    0.408814
   Res    0.189897    sqrt( Sum f_i^2 / 3N )
----------------------------------------
   Max    0.408814    constrained

Stress tensor Voigt[x,y,z,yz,xz,xy] (kbar):       -0.01       -0.02       -0.02        0.00       -0.01       -0.01
(Free)E + p*V (eV/cell)    -4951.3199
Target enthalpy (eV/cell)    -4952.3986

cgvc: Finished line minimization    2.  Mean atomic displacement =    0.0264

                     ====================================
                        Begin CG opt. move =      6
                     ====================================

outcell: Unit cell vectors (Ang):
       50.000000    0.000000    0.000000
        0.000000   50.000000    0.000000
        0.000000    0.000000   50.000000

outcell: Cell vector modules (Ang)   :   50.000000   50.000000   50.000000
outcell: Cell angles (23,13,12) (deg):     90.0000     90.0000     90.0000
outcell: Cell volume (Ang**3)        : 125000.0000
<dSpData1D:S at geom step 6
  <sparsity:sparsity for geom step 6
    nrows_g=300 nrows=19 sparsity=.0617 nnzs=5552, refcount: 7>
  <dData1D:(new from dSpData1D) n=5552, refcount: 1>
refcount: 1>
new_DM -- step:     7
Re-using DM from previous geometries...
Number of DMs in history: 1
 DM extrapolation coefficients: 
1   1.00000
New DM after history re-use:
<dSpData2D:SpM extrapolated using coords
  <sparsity:sparsity for geom step 6
    nrows_g=300 nrows=19 sparsity=.0617 nnzs=5552, refcount: 9>
  <dData2D:(temp array for extrapolation) n=5552 m=1, refcount: 1>
refcount: 1>
No. of atoms with KB's overlaping orbs in proc 0. Max # of overlaps:      21     206
New grid distribution:   1
           1       1:  320    1:   80    1:   80
           2       1:  320    1:   80   81:  160
           3       1:  320    1:   80  161:  240
           4       1:  320    1:   80  241:  320
           5       1:  320   81:  160    1:   80
           6       1:  320   81:  160   81:  160
           7       1:  320   81:  160  161:  240
           8       1:  320   81:  160  241:  320
           9       1:  320  161:  240    1:   80
          10       1:  320  161:  240   81:  160
          11       1:  320  161:  240  161:  240
          12       1:  320  161:  240  241:  320
          13       1:  320  241:  320    1:   80
          14       1:  320  241:  320   81:  160
          15       1:  320  241:  320  161:  240
          16       1:  320  241:  320  241:  320

InitMesh: MESH =   640 x   640 x   640 =   262144000
InitMesh: (bp) =   320 x   320 x   320 =    32768000
InitMesh: Mesh cutoff (required, used) =   400.000   452.816 Ry
ExtMesh (bp) on 0 =   396 x   156 x   156 =     9637056
New grid distribution:   2
           1       1:   67   24:  320   21:   27
           2      59:  320    1:   23   27:  320
           3       1:   58    1:   23   28:  320
           4      60:  320    1:   21   15:   20
           5      62:  320   22:  320    1:   14
           6      68:  320   24:  320   44:  320
           7       1:   61   22:  320   14:   20
           8       1:   59    1:   21    1:   13
           9      62:  320   22:  320   15:   20
          10       1:   67   24:  320   28:  320
          11      60:  320    1:   21    1:   14
          12       1:   58    1:   23   21:   27
          13      68:  320   24:  320   21:   43
          14       1:   61   22:  320    1:   13
          15      59:  320    1:   23   21:   26
          16       1:   59    1:   21   14:   20
New grid distribution:   3
           1       1:   69   25:  320    1:   16
           2       1:  150   40:  320   29:  155
           3      55:  320    1:   39   38:  320
           4      61:  320    1:   24   16:   28
           5      70:  320   25:  320    1:   16
           6     151:  320   40:  320   29:  174
           7       1:   69   25:  320   17:   28
           8       1:   54    1:   39   29:   41
           9      70:  320   25:  320   17:   28
          10      61:  320    1:   24    1:   15
          11       1:   60    1:   24    1:   15
          12     151:  320   40:  320  175:  320
          13       1:   54    1:   39   42:  320
          14      55:  320    1:   39   29:   37
          15       1:  150   40:  320  156:  320
          16       1:   60    1:   24   16:   28
Setting up quadratic distribution...
ExtMesh (bp) on 0 =   143 x   373 x    83 =     4427137
PhiOnMesh: Number of (b)points on node 0 =               139293
PhiOnMesh: nlist on node 0 =               348555

        iscf     Eharris(eV)        E_KS(eV)     FreeEng(eV)     dDmax    Ef(eV) dHmax(eV)
   scf:    1    -4951.859268    -4952.314707    -4952.314707  0.039459 -4.371350  1.396247
   scf:    2    -4946.669261    -4950.630170    -4950.630170  0.141759 -4.395983  4.855544
   scf:    3    -4952.755042    -4952.443012    -4952.443012  0.119634 -4.414379  0.112640
   scf:    4    -4952.444064    -4952.443863    -4952.443863  0.003455 -4.426950  0.031858
   scf:    5    -4952.444053    -4952.443985    -4952.443985  0.000479 -4.435099  0.009472
   scf:    6    -4952.444015    -4952.444002    -4952.444002  0.000405 -4.436026  0.003907
   scf:    7    -4952.444011    -4952.444007    -4952.444007  0.000320 -4.436187  0.001671
   scf:    8    -4952.444008    -4952.444008    -4952.444008  0.000130 -4.436007  0.000571
   scf:    9    -4952.444008    -4952.444008    -4952.444008  0.000047 -4.435973  0.000287
   scf:   10    -4952.444008    -4952.444008    -4952.444008  0.000010 -4.435961  0.000154
   scf:   11    -4952.444008    -4952.444008    -4952.444008  0.000007 -4.435961  0.000038

SCF Convergence by DM+H criterion
max |DM_out - DM_in|         :     0.0000069789
max |H_out - H_in|      (eV) :     0.0000378372
SCF cycle converged after 11 iterations

Using DM_out to compute the final energy and forces
No. of atoms with KB's overlaping orbs in proc 0. Max # of overlaps:      21     206

siesta: E_KS(eV) =            -4952.4440

siesta: Atomic forces (eV/Ang):
----------------------------------------
   Tot   -0.040487    0.006264   -0.026871
----------------------------------------
   Max    0.515874
   Res    0.213832    sqrt( Sum f_i^2 / 3N )
----------------------------------------
   Max    0.515874    constrained

Stress tensor Voigt[x,y,z,yz,xz,xy] (kbar):       -0.03       -0.00       -0.00        0.00       -0.02       -0.02
(Free)E + p*V (eV/cell)    -4951.4693
Target enthalpy (eV/cell)    -4952.4440

                     ====================================
                        Begin CG opt. move =      7
                     ====================================

outcell: Unit cell vectors (Ang):
[...]
    nrows_g=300 nrows=19 sparsity=.0618 nnzs=5560, refcount: 9>
  <dData2D:(temp array for extrapolation) n=5560 m=1, refcount: 1>
refcount: 1>
No. of atoms with KB's overlaping orbs in proc 0. Max # of overlaps:      21     203
New grid distribution:   1
           1       1:  320    1:   80    1:   80
           2       1:  320    1:   80   81:  160
           3       1:  320    1:   80  161:  240
           4       1:  320    1:   80  241:  320
           5       1:  320   81:  160    1:   80
           6       1:  320   81:  160   81:  160
           7       1:  320   81:  160  161:  240
           8       1:  320   81:  160  241:  320
           9       1:  320  161:  240    1:   80
          10       1:  320  161:  240   81:  160
          11       1:  320  161:  240  161:  240
          12       1:  320  161:  240  241:  320
          13       1:  320  241:  320    1:   80
          14       1:  320  241:  320   81:  160
          15       1:  320  241:  320  161:  240
          16       1:  320  241:  320  241:  320

InitMesh: MESH =   640 x   640 x   640 =   262144000
InitMesh: (bp) =   320 x   320 x   320 =    32768000
InitMesh: Mesh cutoff (required, used) =   400.000   452.816 Ry
ExtMesh (bp) on 0 =   396 x   156 x   156 =     9637056
New grid distribution:   2
           1       1:   68   23:  320   21:   27
           2      59:  320    1:   22   27:  320
           3       1:   58    1:   22   28:  320
           4      59:  320    1:   21   15:   20
           5      62:  320   22:  320    1:   14
           6      69:  320   23:  320   37:  320
           7       1:   61   22:  320   14:   20
           8       1:   58    1:   21    1:   13
           9      62:  320   22:  320   15:   20
          10       1:   68   23:  320   28:  320
          11      59:  320    1:   21    1:   14
          12       1:   58    1:   22   21:   27
          13      69:  320   23:  320   21:   36
          14       1:   61   22:  320    1:   13
          15      59:  320    1:   22   21:   26
          16       1:   58    1:   21   14:   20
New grid distribution:   3
           1       1:   70   26:  320    1:   16
           2       1:  153   42:  320   30:  161
           3      55:  320    1:   41   39:  320
           4      59:  320    1:   25   17:   29
           5      71:  320   26:  320    1:   17
           6       1:   70   26:  320   17:   29
           7       1:   54    1:   41   30:   43
           8     154:  320   42:  320  175:  320
           9      71:  320   26:  320   18:   29
          10      59:  320    1:   25    1:   16
          11       1:   58    1:   25    1:   15
          12       1:  153   42:  320  162:  320
          13       1:   54    1:   41   44:  320
          14     154:  320   42:  320   30:  174
          15      55:  320    1:   41   30:   38
          16       1:   58    1:   25   16:   29
Setting up quadratic distribution...
ExtMesh (bp) on 0 =   144 x   374 x    83 =     4470048
PhiOnMesh: Number of (b)points on node 0 =               141848
PhiOnMesh: nlist on node 0 =               362457

        iscf     Eharris(eV)        E_KS(eV)     FreeEng(eV)     dDmax    Ef(eV) dHmax(eV)
   scf:    1    -4958.310433    -4958.311342    -4958.311342  0.003623 -4.308376  0.076056
   scf:    2    -4958.297954    -4958.307245    -4958.307245  0.012756 -4.302437  0.333186
   scf:    3    -4958.312255    -4958.311537    -4958.311537  0.010537 -4.307158  0.003435
   scf:    4    -4958.311538    -4958.311538    -4958.311538  0.000064 -4.307083  0.001289
   scf:    5    -4958.311538    -4958.311538    -4958.311538  0.000033 -4.307073  0.000533
   scf:    6    -4958.311538    -4958.311538    -4958.311538  0.000020 -4.307062  0.000223
   scf:    7    -4958.311538    -4958.311538    -4958.311538  0.000014 -4.307056  0.000085

SCF Convergence by DM+H criterion
max |DM_out - DM_in|         :     0.0000144946
max |H_out - H_in|      (eV) :     0.0000846986
SCF cycle converged after 7 iterations

Using DM_out to compute the final energy and forces
No. of atoms with KB's overlaping orbs in proc 0. Max # of overlaps:      21     203

siesta: E_KS(eV) =            -4958.3115

siesta: Atomic forces (eV/Ang):
----------------------------------------
   Tot    0.000087    0.002621    0.015378
----------------------------------------
   Max    0.047484
   Res    0.009599    sqrt( Sum f_i^2 / 3N )
----------------------------------------
   Max    0.047484    constrained

Stress tensor Voigt[x,y,z,yz,xz,xy] (kbar):        0.00        0.00        0.00        0.00       -0.00       -0.00
(Free)E + p*V (eV/cell)    -4958.3559
Target enthalpy (eV/cell)    -4958.3115

                     ====================================
                        Begin CG opt. move =    272
                     ====================================

outcell: Unit cell vectors (Ang):
       50.000000    0.000000    0.000000
        0.000000   50.000000    0.000000
        0.000000    0.000000   50.000000

outcell: Cell vector modules (Ang)   :   50.000000   50.000000   50.000000
outcell: Cell angles (23,13,12) (deg):     90.0000     90.0000     90.0000
outcell: Cell volume (Ang**3)        : 125000.0000
<dSpData1D:S at geom step 272
  <sparsity:sparsity for geom step 272
    nrows_g=300 nrows=19 sparsity=.0618 nnzs=5560, refcount: 7>
  <dData1D:(new from dSpData1D) n=5560, refcount: 1>
refcount: 1>
new_DM -- step:   273
Re-using DM from previous geometries...
Number of DMs in history: 1
 DM extrapolation coefficients: 
1   1.00000
New DM after history re-use:
<dSpData2D:SpM extrapolated using coords
  <sparsity:sparsity for geom step 272
    nrows_g=300 nrows=19 sparsity=.0618 nnzs=5560, refcount: 9>
  <dData2D:(temp array for extrapolation) n=5560 m=1, refcount: 1>
refcount: 1>
No. of atoms with KB's overlaping orbs in proc 0. Max # of overlaps:      21     203
New grid distribution:   1
           1       1:  320    1:   80    1:   80
           2       1:  320    1:   80   81:  160
           3       1:  320    1:   80  161:  240
           4       1:  320    1:   80  241:  320
           5       1:  320   81:  160    1:   80
           6       1:  320   81:  160   81:  160
           7       1:  320   81:  160  161:  240
           8       1:  320   81:  160  241:  320
           9       1:  320  161:  240    1:   80
          10       1:  320  161:  240   81:  160
          11       1:  320  161:  240  161:  240
          12       1:  320  161:  240  241:  320
          13       1:  320  241:  320    1:   80
          14       1:  320  241:  320   81:  160
          15       1:  320  241:  320  161:  240
          16       1:  320  241:  320  241:  320

InitMesh: MESH =   640 x   640 x   640 =   262144000
InitMesh: (bp) =   320 x   320 x   320 =    32768000
InitMesh: Mesh cutoff (required, used) =   400.000   452.816 Ry
ExtMesh (bp) on 0 =   396 x   156 x   156 =     9637056
New grid distribution:   2
           1       1:   68   23:  320   21:   27
           2      59:  320    1:   22   27:  320
           3       1:   58    1:   22   28:  320
           4      59:  320    1:   21   15:   20
           5      62:  320   22:  320    1:   14
           6      69:  320   23:  320   37:  320
           7       1:   61   22:  320   14:   20
           8       1:   58    1:   21    1:   13
           9      62:  320   22:  320   15:   20
          10       1:   68   23:  320   28:  320
          11      59:  320    1:   21    1:   14
          12       1:   58    1:   22   21:   27
          13      69:  320   23:  320   21:   36
          14       1:   61   22:  320    1:   13
          15      59:  320    1:   22   21:   26
          16       1:   58    1:   21   14:   20
New grid distribution:   3
           1       1:   70   26:  320    1:   16
           2       1:  153   42:  320   30:  161
           3      55:  320    1:   41   39:  320
           4      59:  320    1:   25   17:   29
           5      71:  320   26:  320    1:   17
           6       1:   70   26:  320   17:   29
           7       1:   54    1:   41   30:   43
           8     154:  320   42:  320  175:  320
           9      71:  320   26:  320   18:   29
          10      59:  320    1:   25    1:   16
          11       1:   58    1:   25    1:   15
          12       1:  153   42:  320  162:  320
          13       1:   54    1:   41   44:  320
          14     154:  320   42:  320   30:  174
          15      55:  320    1:   41   30:   38
          16       1:   58    1:   25   16:   29
Setting up quadratic distribution...
ExtMesh (bp) on 0 =   144 x   374 x    83 =     4470048
PhiOnMesh: Number of (b)points on node 0 =               141848
PhiOnMesh: nlist on node 0 =               362427

        iscf     Eharris(eV)        E_KS(eV)     FreeEng(eV)     dDmax    Ef(eV) dHmax(eV)
   scf:    1    -4958.311654    -4958.311512    -4958.311512  0.001625 -4.307784  0.033831
   scf:    2    -4958.308868    -4958.310703    -4958.310703  0.005702 -4.310467  0.147768
   scf:    3    -4958.311693    -4958.311551    -4958.311551  0.004715 -4.308305  0.001428
   scf:    4    -4958.311551    -4958.311551    -4958.311551  0.000027 -4.308345  0.000595
   scf:    5    -4958.311551    -4958.311551    -4958.311551  0.000015 -4.308353  0.000241
   scf:    6    -4958.311551    -4958.311551    -4958.311551  0.000009 -4.308359  0.000100
   scf:    7    -4958.311551    -4958.311551    -4958.311551  0.000007 -4.308362  0.000037

SCF Convergence by DM+H criterion
max |DM_out - DM_in|         :     0.0000065405
max |H_out - H_in|      (eV) :     0.0000367020
SCF cycle converged after 7 iterations

Using DM_out to compute the final energy and forces
No. of atoms with KB's overlaping orbs in proc 0. Max # of overlaps:      21     203

siesta: E_KS(eV) =            -4958.3116

siesta: Atomic forces (eV/Ang):
----------------------------------------
   Tot    0.009175    0.003190    0.015859
----------------------------------------
   Max    0.021458
   Res    0.004834    sqrt( Sum f_i^2 / 3N )
----------------------------------------
   Max    0.021458    constrained

Stress tensor Voigt[x,y,z,yz,xz,xy] (kbar):        0.00        0.00        0.00        0.00       -0.00       -0.00
(Free)E + p*V (eV/cell)    -4958.3650
Target enthalpy (eV/cell)    -4958.3116

cgvc: Finished line minimization  110.  Mean atomic displacement =    0.0012

                     ====================================
                        Begin CG opt. move =    273
                     ====================================

outcell: Unit cell vectors (Ang):
       50.000000    0.000000    0.000000
        0.000000   50.000000    0.000000
        0.000000    0.000000   50.000000

outcell: Cell vector modules (Ang)   :   50.000000   50.000000   50.000000
outcell: Cell angles (23,13,12) (deg):     90.0000     90.0000     90.0000
outcell: Cell volume (Ang**3)        : 125000.0000
<dSpData1D:S at geom step 273
  <sparsity:sparsity for geom step 273
    nrows_g=300 nrows=19 sparsity=.0618 nnzs=5560, refcount: 7>
  <dData1D:(new from dSpData1D) n=5560, refcount: 1>
refcount: 1>
new_DM -- step:   274
Re-using DM from previous geometries...
Number of DMs in history: 1
 DM extrapolation coefficients: 
1   1.00000
New DM after history re-use:
<dSpData2D:SpM extrapolated using coords
  <sparsity:sparsity for geom step 273
    nrows_g=300 nrows=19 sparsity=.0618 nnzs=5560, refcount: 9>
  <dData2D:(temp array for extrapolation) n=5560 m=1, refcount: 1>
refcount: 1>
No. of atoms with KB's overlaping orbs in proc 0. Max # of overlaps:      21     203
New grid distribution:   1
           1       1:  320    1:   80    1:   80
           2       1:  320    1:   80   81:  160
           3       1:  320    1:   80  161:  240
           4       1:  320    1:   80  241:  320
           5       1:  320   81:  160    1:   80
           6       1:  320   81:  160   81:  160
           7       1:  320   81:  160  161:  240
           8       1:  320   81:  160  241:  320
           9       1:  320  161:  240    1:   80
          10       1:  320  161:  240   81:  160
          11       1:  320  161:  240  161:  240
          12       1:  320  161:  240  241:  320
          13       1:  320  241:  320    1:   80
          14       1:  320  241:  320   81:  160
          15       1:  320  241:  320  161:  240
          16       1:  320  241:  320  241:  320

InitMesh: MESH =   640 x   640 x   640 =   262144000
InitMesh: (bp) =   320 x   320 x   320 =    32768000
InitMesh: Mesh cutoff (required, used) =   400.000   452.816 Ry
ExtMesh (bp) on 0 =   396 x   156 x   156 =     9637056
New grid distribution:   2
           1       1:   68   23:  320   21:   27
           2      59:  320    1:   22   27:  320
           3       1:   58    1:   22   28:  320
           4      59:  320    1:   21   15:   20
           5      62:  320   22:  320    1:   14
           6      69:  320   23:  320   37:  320
           7       1:   61   22:  320   14:   20
           8       1:   58    1:   21    1:   13
           9      62:  320   22:  320   15:   20
          10       1:   68   23:  320   28:  320
          11      59:  320    1:   21    1:   14
          12       1:   58    1:   22   21:   27
          13      69:  320   23:  320   21:   36
          14       1:   61   22:  320    1:   13
          15      59:  320    1:   22   21:   26
          16       1:   58    1:   21   14:   20
New grid distribution:   3
           1       1:   70   26:  320    1:   16
           2       1:  153   42:  320   30:  161
           3      55:  320    1:   41   39:  320
           4      59:  320    1:   25   17:   29
           5      71:  320   26:  320    1:   17
           6       1:   70   26:  320   17:   29
           7       1:   54    1:   41   30:   43
           8     154:  320   42:  320  175:  320
           9      71:  320   26:  320   18:   29
          10      59:  320    1:   25    1:   16
          11       1:   58    1:   25    1:   15
          12       1:  153   42:  320  162:  320
          13       1:   54    1:   41   44:  320
          14     154:  320   42:  320   30:  174
          15      55:  320    1:   41   30:   38
          16       1:   58    1:   25   16:   29
Setting up quadratic distribution...
ExtMesh (bp) on 0 =   144 x   374 x    83 =     4470048
PhiOnMesh: Number of (b)points on node 0 =               141848
PhiOnMesh: nlist on node 0 =               362440

        iscf     Eharris(eV)        E_KS(eV)     FreeEng(eV)     dDmax    Ef(eV) dHmax(eV)
   scf:    1    -4958.305324    -4958.311522    -4958.311522  0.001523 -4.306740  0.029103
   scf:    2    -4958.307958    -4958.310435    -4958.310435  0.005401 -4.306934  0.131280
   scf:    3    -4958.311767    -4958.311577    -4958.311577  0.004449 -4.306723  0.001460
   scf:    4    -4958.311578    -4958.311578    -4958.311578  0.000041 -4.306727  0.000589
   scf:    5    -4958.311578    -4958.311578    -4958.311578  0.000023 -4.306717  0.000187
   scf:    6    -4958.311578    -4958.311578    -4958.311578  0.000012 -4.306717  0.000062

SCF Convergence by DM+H criterion
max |DM_out - DM_in|         :     0.0000119008
max |H_out - H_in|      (eV) :     0.0000620481
SCF cycle converged after 6 iterations

Using DM_out to compute the final energy and forces
No. of atoms with KB's overlaping orbs in proc 0. Max # of overlaps:      21     203

siesta: E_KS(eV) =            -4958.3116

siesta: Atomic forces (eV/Ang):
----------------------------------------
   Tot   -0.001941    0.001935    0.013123
----------------------------------------
   Max    0.008633
   Res    0.003729    sqrt( Sum f_i^2 / 3N )
----------------------------------------
   Max    0.008633    constrained

Stress tensor Voigt[x,y,z,yz,xz,xy] (kbar):        0.00        0.00       -0.00        0.00       -0.00       -0.00
(Free)E + p*V (eV/cell)    -4958.3423
Target enthalpy (eV/cell)    -4958.3116

outcoor: Relaxed atomic coordinates (Ang):                  
   10.01122257    3.01099991    2.97141748   1       1  C
   10.67217135    1.75440444    3.07125741   1       2  C
   12.07996787    1.65151538    3.12371992   1       3  C
   12.89436369    2.82263514    3.10017183   1       4  C
   12.25872759    4.08938669    3.02821741   1       5  C
   10.84824965    4.16533258    2.96275340   1       6  C
   10.05685525    0.83291891    3.09561935   2       7  H
   12.55534102    0.65099206    3.18509011   2       8  H
   12.81944374    5.04424678    3.01803360   2       9  H
   14.65679785    2.60541768    3.17666692   3      10  S
   14.98111025    3.93977070    3.10727812   2      11  H
   10.26425778    5.52484120    2.87335549   4      12  N
    9.04184673    5.61528511    2.65107195   5      13  O
   11.03316978    6.49275169    3.02655046   5      14  O
    8.50484312    3.03545847    2.99849777   1      15  C
    7.84522381    2.94905444    4.25684901   1      16  C
    6.43726588    2.89717494    4.36087330   1      17  C
    5.62152152    2.91054758    3.19066955   1      18  C
    6.25611324    2.96892878    1.92265050   1      19  C
    7.66657209    3.03137218    1.84528546   1      20  C
    8.46091166    2.93407251    5.17848542   2      21  H
    5.96258665    2.84358754    5.36203267   2      22  H
    5.69492413    2.97079714    0.96783055   2      23  H
    3.85902185    2.84145030    3.41117925   3      24  S
    3.53137910    2.89701146    2.07698527   2      25  H
    8.25087184    3.10458264    0.48433914   4      26  N
    9.47998836    3.28444334    0.39166143   5      27  O
    7.47537640    2.97998018   -0.48210952   5      28  O

siesta: Program's energy decomposition (eV):
siesta: Ebs     =     -1344.796513
siesta: Eions   =      6751.226950
siesta: Ena     =       886.146265
siesta: Ekin    =      3201.674427
siesta: Enl     =      -816.113751
siesta: Eso     =         0.000000
siesta: Edftu   =         0.000000
siesta: DEna    =       -42.152957
siesta: DUscf   =         8.054680
siesta: DUext   =         0.000000
siesta: Exc     =     -1444.693292
siesta: eta*DQ  =         0.000000
siesta: Emadel  =         0.000000
siesta: Emeta   =         0.000000
siesta: Emolmec =         0.000000
siesta: Ekinion =         0.000000
siesta: Eharris =     -4958.311578
siesta: Etot    =     -4958.311578
siesta: FreeEng =     -4958.311578

siesta: Final energy (eV):
siesta:  Band Struct. =   -1344.796513
siesta:       Kinetic =    3201.674427
siesta:       Hartree =   20304.974550
siesta:       Edftu   =       0.000000
siesta:       Eso     =       0.000000
siesta:    Ext. field =       0.000000
siesta:   Exch.-corr. =   -1444.693292
siesta:  Ion-electron =  -43480.598404
siesta:       Ion-ion =   16460.331141
siesta:       Ekinion =       0.000000
siesta:         Total =   -4958.311578
siesta:         Fermi =      -4.306717

siesta: Stress tensor (static) (eV/Ang**3):
siesta:     0.000001   -0.000000   -0.000000
siesta:    -0.000000    0.000000    0.000000
siesta:    -0.000000    0.000000   -0.000000

siesta: Cell volume =     125000.000000 Ang**3

siesta: Pressure (static):
siesta:                Solid            Molecule  Units
siesta:          -0.00000000         -0.00000000  Ry/Bohr**3
siesta:          -0.00000025         -0.00000029  eV/Ang**3
siesta:          -0.00039330         -0.00046145  kBar
(Free)E+ p_basis*V_orbitals  =       -4949.298924
(Free)Eharris+ p_basis*V_orbitals  =       -4949.298924

siesta: Electric dipole (a.u.)  =   -0.006749   -1.114860    1.121871
siesta: Electric dipole (Debye) =   -0.017154   -2.833693    2.851513

cite: Please see "dbdt.bib" for an exhaustive BiBTeX file.
cite: Please clearly indicate Siesta version in published work: 4.1.5
cite: This calculation has made use of the following articles
cite: which are encouraged to be cited in a published work.
        Primary SIESTA paper
          DOI: www.doi.org/10.1088/0953-8984/14/11/302
 
>> End of run:  13-JUL-2021   5:46:18
Job completed
Job completed
