Siesta Version  : 4.1.5
Architecture    : unknown
Compiler version: ifort (IFORT) 19.0.5.281 20190815
Compiler flags  : mpiifort -O2 -xhost -ip -fPIC -fp-model source
PP flags        : -DFC_HAVE_ABORT -DMPI -DCDF -DNCDF -DNCDF_4 -DGRID_DP -DPHI_GRID_SP
Libraries       : libncdf.a libfdict.a -L/scratch/scicomp/easybuild/CentOS/7.3.1611/Haswell/sofftware/netCDF-Fortran/4.5.2-iimpi-2019b/lib -lnetcdff -L/scratch/scicomp/easybuild/CentOS/7.3.1611/Haswell/software/cURL/7.66.0-GCCcore-8.3.0/lib -lcurl -L/scratch/scicomp/easybuild/CentOS/7.3.1611/Haswell/software/netCDF/4.7.1-iimpi-2019b/lib64 -lnetcdf -L/scratch/scicomp/easybuild/CentOS/7.3.1611/Haswell/software/HDF5/1.10.5-iimpi-2019b/lib -lhdf5hl_fortran -lhdf5_fortran -lhdf5_hl -lhdf5 -L/scratch/scicomp/easybuild/CentOS/7.3.1611/Haswell/software/imkl/2019.5.281-iimpi-2019b/mkl/lib/intel64 -lmkl_scalapack_lp64 -lmkl_intel_lp64 -lmkl_intel_thread -lmkl_core -lmkl_blacs_intelmpi_lp64 -liomp5 -lpthread -lm -ldl
PARALLEL version
NetCDF support
NetCDF-4 support

* Running on 48 nodes in parallel
>> Start of run:   3-AUG-2021  12:49:49

                           ***********************       
                           *  WELCOME TO SIESTA  *       
                           ***********************       

reinit: Reading from RUN.fdf

reinit: -----------------------------------------------------------------------
reinit: System Name: 
reinit: -----------------------------------------------------------------------
reinit: System Label: dbdt
reinit: -----------------------------------------------------------------------

initatom: Reading input for the pseudopotentials and atomic orbitals ----------
Species number:   1 Atomic number:    6 Label: C
Species number:   2 Atomic number:    1 Label: H
Species number:   3 Atomic number:    7 Label: N
Species number:   4 Atomic number:    8 Label: O
 
Ground state valence configuration:   2s02  2p02
Reading pseudopotential information in formatted form from C.psf

Pseudopotential generated from a relativistic atomic calculation

Valence configuration for pseudopotential generation:
2s( 2.00) rc: 1.25
2p( 2.00) rc: 1.25
3d( 0.00) rc: 1.98
4f( 0.00) rc: 1.98
Ground state valence configuration:   1s01
Reading pseudopotential information in formatted form from H.psf

Valence configuration for pseudopotential generation:
1s( 1.00) rc: 1.25
2p( 0.00) rc: 1.25
3d( 0.00) rc: 1.25
4f( 0.00) rc: 1.25
Ground state valence configuration:   2s02  2p03
Reading pseudopotential information in formatted form from N.psf

Valence configuration for pseudopotential generation:
2s( 2.00) rc: 1.48
2p( 3.00) rc: 1.48
3d( 0.00) rc: 1.48
4f( 0.00) rc: 1.48
Ground state valence configuration:   2s02  2p04
Reading pseudopotential information in formatted form from O.psf

Valence configuration for pseudopotential generation:
2s( 2.00) rc: 1.47
2p( 4.00) rc: 1.47
3d( 0.00) rc: 1.47
4f( 0.00) rc: 1.47
For C, standard SIESTA heuristics set lmxkb to 3
 (one more than the basis l, including polarization orbitals).
Use PS.lmax or PS.KBprojectors blocks to override.
For H, standard SIESTA heuristics set lmxkb to 2
 (one more than the basis l, including polarization orbitals).
Use PS.lmax or PS.KBprojectors blocks to override.
For N, standard SIESTA heuristics set lmxkb to 3
 (one more than the basis l, including polarization orbitals).
Use PS.lmax or PS.KBprojectors blocks to override.
For O, standard SIESTA heuristics set lmxkb to 3
 (one more than the basis l, including polarization orbitals).
Use PS.lmax or PS.KBprojectors blocks to override.

<basis_specs>
===============================================================================
C                    Z=   6    Mass=  12.010        Charge= 0.17977+309
Lmxo=1 Lmxkb= 3    BasisType=split      Semic=F
L=0  Nsemic=0  Cnfigmx=2
          i=1  nzeta=2  polorb=0  (2s)
            splnorm:   0.15000    
               vcte:    0.0000    
               rinn:    0.0000    
               qcoe:    0.0000    
               qyuk:    0.0000    
               qwid:   0.10000E-01
                rcs:    0.0000      0.0000    
            lambdas:    1.0000      1.0000    
L=1  Nsemic=0  Cnfigmx=2
          i=1  nzeta=2  polorb=1  (2p)
            splnorm:   0.15000    
               vcte:    0.0000    
               rinn:    0.0000    
               qcoe:    0.0000    
               qyuk:    0.0000    
               qwid:   0.10000E-01
                rcs:    0.0000      0.0000    
            lambdas:    1.0000      1.0000    
-------------------------------------------------------------------------------
L=0  Nkbl=1  erefs: 0.17977+309
L=1  Nkbl=1  erefs: 0.17977+309
L=2  Nkbl=1  erefs: 0.17977+309
L=3  Nkbl=1  erefs: 0.17977+309
===============================================================================
</basis_specs>

atom: Called for C                     (Z =   6)

read_vps: Pseudopotential generation method:
read_vps: ATM3      Troullier-Martins                       
Valence charge for ps generation:    4.00000

xc_check: Exchange-correlation functional:
xc_check: GGA Perdew, Burke & Ernzerhof 1996
V l=0 = -2*Zval/r beyond r=  1.5418
V l=1 = -2*Zval/r beyond r=  1.5418
V l=2 = -2*Zval/r beyond r=  1.9553
V l=3 = -2*Zval/r beyond r=  1.9310
All V_l potentials equal beyond r=  1.9310
This should be close to max(r_c) in ps generation
All pots = -2*Zval/r beyond r=  1.9553

VLOCAL1: 99.0% of the norm of Vloc inside     11.642 Ry
VLOCAL1: 99.9% of the norm of Vloc inside     26.531 Ry
atom: Maximum radius for 4*pi*r*r*local-pseudopot. charge    2.30035
atom: Maximum radius for r*vlocal+2*Zval:    2.00478
GHOST: No ghost state for L =  0
GHOST: No ghost state for L =  1
GHOST: No ghost state for L =  2
GHOST: No ghost state for L =  3

KBgen: Kleinman-Bylander projectors: 
   l= 0   rc=  2.134104   el= -1.010225   Ekb= 11.465766   kbcos=  0.116141
   l= 1   rc=  2.107589   el= -0.388560   Ekb= -6.457899   kbcos= -0.368830
   l= 2   rc=  2.300349   el=  0.001971   Ekb= -0.774314   kbcos= -0.017397
   l= 3   rc=  2.542323   el=  0.003065   Ekb= -0.308789   kbcos= -0.003148

KBgen: Total number of Kleinman-Bylander projectors:   16
atom: -------------------------------------------------------------------------

atom: SANKEY-TYPE ORBITALS:
atom: Selected multiple-zeta basis: split     

SPLIT: Orbitals with angular momentum L= 0

SPLIT: Basis orbitals for state 2s

SPLIT: PAO cut-off radius determined from an
SPLIT: energy shift=  0.010000 Ry

   izeta = 1
                 lambda =    1.000000
                     rc =    4.518360
                 energy =   -1.000924
                kinetic =    0.901832
    potential(screened) =   -1.902756
       potential(ionic) =   -5.483597

   izeta = 2
                 rmatch =    3.431921
              splitnorm =    0.150000
                 energy =   -0.864009
                kinetic =    1.380864
    potential(screened) =   -2.244873
       potential(ionic) =   -6.058854

SPLIT: Orbitals with angular momentum L= 1

SPLIT: Basis orbitals for state 2p

SPLIT: PAO cut-off radius determined from an
SPLIT: energy shift=  0.010000 Ry

   izeta = 1
                 lambda =    1.000000
                     rc =    5.518829
                 energy =   -0.379580
                kinetic =    2.483773
    potential(screened) =   -2.863354
       potential(ionic) =   -6.317858

   izeta = 2
                 rmatch =    3.607901
              splitnorm =    0.150000
                 energy =   -0.233312
                kinetic =    3.744417
    potential(screened) =   -3.977729
       potential(ionic) =   -7.820633

POLgen: Perturbative polarization orbital with L=  2

POLgen: Polarization orbital for state 2p

   izeta = 1
                     rc =    5.518829
                 energy =    1.134118
                kinetic =    2.331218
    potential(screened) =   -1.197099
       potential(ionic) =   -4.032010
atom: Total number of Sankey-type orbitals: 13

atm_pop: Valence configuration (for local Pseudopot. screening):
 2s( 2.00)                                                            
 2p( 2.00)                                                            
Vna: chval, zval:    4.00000   4.00000

Vna:  Cut-off radius for the neutral-atom potential:   5.518829

atom: _________________________________________________________________________

<basis_specs>
===============================================================================
H                    Z=   1    Mass=  1.0100        Charge= 0.17977+309
Lmxo=0 Lmxkb= 2    BasisType=split      Semic=F
L=0  Nsemic=0  Cnfigmx=1
          i=1  nzeta=2  polorb=1  (1s)
            splnorm:   0.15000    
               vcte:    0.0000    
               rinn:    0.0000    
               qcoe:    0.0000    
               qyuk:    0.0000    
               qwid:   0.10000E-01
                rcs:    0.0000      0.0000    
            lambdas:    1.0000      1.0000    
-------------------------------------------------------------------------------
L=0  Nkbl=1  erefs: 0.17977+309
L=1  Nkbl=1  erefs: 0.17977+309
L=2  Nkbl=1  erefs: 0.17977+309
===============================================================================
</basis_specs>

atom: Called for H                     (Z =   1)

read_vps: Pseudopotential generation method:
read_vps: ATM3      Troullier-Martins                       
Valence charge for ps generation:    1.00000

xc_check: Exchange-correlation functional:
xc_check: GGA Perdew, Burke & Ernzerhof 1996
V l=0 = -2*Zval/r beyond r=  1.2343
V l=1 = -2*Zval/r beyond r=  1.2189
V l=2 = -2*Zval/r beyond r=  1.2189
All V_l potentials equal beyond r=  1.2343
This should be close to max(r_c) in ps generation
All pots = -2*Zval/r beyond r=  1.2343

VLOCAL1: 99.0% of the norm of Vloc inside     28.493 Ry
VLOCAL1: 99.9% of the norm of Vloc inside     64.935 Ry
atom: Maximum radius for 4*pi*r*r*local-pseudopot. charge    1.45251
atom: Maximum radius for r*vlocal+2*Zval:    1.21892
GHOST: No ghost state for L =  0
GHOST: No ghost state for L =  1
GHOST: No ghost state for L =  2

KBgen: Kleinman-Bylander projectors: 
   l= 0   rc=  1.364359   el= -0.477200   Ekb= -2.021939   kbcos= -0.344793
   l= 1   rc=  1.434438   el=  0.001076   Ekb= -0.443447   kbcos= -0.022843
   l= 2   rc=  1.470814   el=  0.002010   Ekb= -0.140543   kbcos= -0.002863

KBgen: Total number of Kleinman-Bylander projectors:    9
atom: -------------------------------------------------------------------------

atom: SANKEY-TYPE ORBITALS:
atom: Selected multiple-zeta basis: split     

SPLIT: Orbitals with angular momentum L= 0

SPLIT: Basis orbitals for state 1s

SPLIT: PAO cut-off radius determined from an
SPLIT: energy shift=  0.010000 Ry

   izeta = 1
                 lambda =    1.000000
                     rc =    5.204501
                 energy =   -0.466874
                kinetic =    0.935616
    potential(screened) =   -1.402489
       potential(ionic) =   -1.927169

   izeta = 2
                 rmatch =    3.903467
              splitnorm =    0.150000
                 energy =   -0.359380
                kinetic =    1.518080
    potential(screened) =   -1.877460
       potential(ionic) =   -2.426500

POLgen: Perturbative polarization orbital with L=  1

POLgen: Polarization orbital for state 1s

   izeta = 1
                     rc =    5.204501
                 energy =    0.666831
                kinetic =    1.331374
    potential(screened) =   -0.664544
       potential(ionic) =   -1.147060
atom: Total number of Sankey-type orbitals:  5

atm_pop: Valence configuration (for local Pseudopot. screening):
 1s( 1.00)                                                            
Vna: chval, zval:    1.00000   1.00000

Vna:  Cut-off radius for the neutral-atom potential:   5.204501

atom: _________________________________________________________________________

<basis_specs>
===============================================================================
N                    Z=   7    Mass=  14.010        Charge= 0.17977+309
Lmxo=1 Lmxkb= 3    BasisType=split      Semic=F
L=0  Nsemic=0  Cnfigmx=2
          i=1  nzeta=2  polorb=0  (2s)
            splnorm:   0.15000    
               vcte:    0.0000    
               rinn:    0.0000    
               qcoe:    0.0000    
               qyuk:    0.0000    
               qwid:   0.10000E-01
                rcs:    0.0000      0.0000    
            lambdas:    1.0000      1.0000    
L=1  Nsemic=0  Cnfigmx=2
          i=1  nzeta=2  polorb=1  (2p)
            splnorm:   0.15000    
               vcte:    0.0000    
               rinn:    0.0000    
               qcoe:    0.0000    
               qyuk:    0.0000    
               qwid:   0.10000E-01
                rcs:    0.0000      0.0000    
            lambdas:    1.0000      1.0000    
-------------------------------------------------------------------------------
L=0  Nkbl=1  erefs: 0.17977+309
L=1  Nkbl=1  erefs: 0.17977+309
L=2  Nkbl=1  erefs: 0.17977+309
L=3  Nkbl=1  erefs: 0.17977+309
===============================================================================
</basis_specs>

atom: Called for N                     (Z =   7)

read_vps: Pseudopotential generation method:
read_vps: ATM3      Troullier-Martins                       
Valence charge for ps generation:    5.00000

read_vps: Pseudopotential includes a core correction:
read_vps: Pseudo-core for xc-correction

xc_check: Exchange-correlation functional:
xc_check: GGA Perdew, Burke & Ernzerhof 1996
V l=0 = -2*Zval/r beyond r=  1.4606
V l=1 = -2*Zval/r beyond r=  1.4606
V l=2 = -2*Zval/r beyond r=  1.4606
V l=3 = -2*Zval/r beyond r=  1.4606
All V_l potentials equal beyond r=  1.4606
This should be close to max(r_c) in ps generation
All pots = -2*Zval/r beyond r=  1.4606

VLOCAL1: 99.0% of the norm of Vloc inside     20.347 Ry
VLOCAL1: 99.9% of the norm of Vloc inside     46.372 Ry
atom: Maximum radius for 4*pi*r*r*local-pseudopot. charge    1.76189
atom: Maximum radius for r*vlocal+2*Zval:    1.53550
GHOST: No ghost state for L =  0
GHOST: No ghost state for L =  1
GHOST: No ghost state for L =  2
GHOST: No ghost state for L =  3

KBgen: Kleinman-Bylander projectors: 
   l= 0   rc=  1.634559   el= -1.363963   Ekb=  5.296955   kbcos=  0.335621
   l= 1   rc=  1.614250   el= -0.521451   Ekb= -5.259161   kbcos= -0.433408
   l= 2   rc=  1.718383   el=  0.001991   Ekb= -1.271464   kbcos= -0.007566
   l= 3   rc=  1.761893   el=  0.003093   Ekb= -0.494769   kbcos= -0.001015

KBgen: Total number of Kleinman-Bylander projectors:   16
atom: -------------------------------------------------------------------------

atom: SANKEY-TYPE ORBITALS:
atom: Selected multiple-zeta basis: split     

SPLIT: Orbitals with angular momentum L= 0

SPLIT: Basis orbitals for state 2s

SPLIT: PAO cut-off radius determined from an
SPLIT: energy shift=  0.010000 Ry

   izeta = 1
                 lambda =    1.000000
                     rc =    3.970931
                 energy =   -1.354621
                kinetic =    1.185116
    potential(screened) =   -2.539737
       potential(ionic) =   -8.071102

   izeta = 2
                 rmatch =    2.905100
              splitnorm =    0.150000
                 energy =   -1.170738
                kinetic =    1.788055
    potential(screened) =   -2.958794
       potential(ionic) =   -8.878231

SPLIT: Orbitals with angular momentum L= 1

SPLIT: Basis orbitals for state 2p

SPLIT: PAO cut-off radius determined from an
SPLIT: energy shift=  0.010000 Ry

   izeta = 1
                 lambda =    1.000000
                     rc =    4.850185
                 energy =   -0.512432
                kinetic =    3.459728
    potential(screened) =   -3.972161
       potential(ionic) =   -9.314889

   izeta = 2
                 rmatch =    3.016124
              splitnorm =    0.150000
                 energy =   -0.328673
                kinetic =    5.066839
    potential(screened) =   -5.395512
       potential(ionic) =  -11.318381

POLgen: Perturbative polarization orbital with L=  2

POLgen: Polarization orbital for state 2p

   izeta = 1
                     rc =    4.850185
                 energy =    1.640616
                kinetic =    3.329188
    potential(screened) =   -1.688572
       potential(ionic) =   -6.032080
atom: Total number of Sankey-type orbitals: 13

atm_pop: Valence configuration (for local Pseudopot. screening):
 2s( 2.00)                                                            
 2p( 3.00)                                                            
Vna: chval, zval:    5.00000   5.00000

Vna:  Cut-off radius for the neutral-atom potential:   4.850185
comcore: Pseudo-core radius Rcore=  1.554824

atom: _________________________________________________________________________

<basis_specs>
===============================================================================
O                    Z=   8    Mass=  16.000        Charge= 0.17977+309
Lmxo=1 Lmxkb= 3    BasisType=split      Semic=F
L=0  Nsemic=0  Cnfigmx=2
          i=1  nzeta=2  polorb=0  (2s)
            splnorm:   0.15000    
               vcte:    0.0000    
               rinn:    0.0000    
               qcoe:    0.0000    
               qyuk:    0.0000    
               qwid:   0.10000E-01
                rcs:    0.0000      0.0000    
            lambdas:    1.0000      1.0000    
L=1  Nsemic=0  Cnfigmx=2
          i=1  nzeta=2  polorb=1  (2p)
            splnorm:   0.15000    
               vcte:    0.0000    
               rinn:    0.0000    
               qcoe:    0.0000    
               qyuk:    0.0000    
               qwid:   0.10000E-01
                rcs:    0.0000      0.0000    
            lambdas:    1.0000      1.0000    
-------------------------------------------------------------------------------
L=0  Nkbl=1  erefs: 0.17977+309
L=1  Nkbl=1  erefs: 0.17977+309
L=2  Nkbl=1  erefs: 0.17977+309
L=3  Nkbl=1  erefs: 0.17977+309
===============================================================================
</basis_specs>

atom: Called for O                     (Z =   8)

read_vps: Pseudopotential generation method:
read_vps: ATM3      Troullier-Martins                       
Valence charge for ps generation:    6.00000

read_vps: Pseudopotential includes a core correction:
read_vps: Pseudo-core for xc-correction

xc_check: Exchange-correlation functional:
xc_check: GGA Perdew, Burke & Ernzerhof 1996
V l=0 = -2*Zval/r beyond r=  1.4482
V l=1 = -2*Zval/r beyond r=  1.4482
V l=2 = -2*Zval/r beyond r=  1.4482
V l=3 = -2*Zval/r beyond r=  1.4482
All V_l potentials equal beyond r=  1.4482
This should be close to max(r_c) in ps generation
All pots = -2*Zval/r beyond r=  1.4482

VLOCAL1: 99.0% of the norm of Vloc inside     20.696 Ry
VLOCAL1: 99.9% of the norm of Vloc inside     47.167 Ry
atom: Maximum radius for 4*pi*r*r*local-pseudopot. charge    1.74697
atom: Maximum radius for r*vlocal+2*Zval:    1.52250
GHOST: No ghost state for L =  0
GHOST: No ghost state for L =  1
GHOST: No ghost state for L =  2
GHOST: No ghost state for L =  3

KBgen: Kleinman-Bylander projectors: 
   l= 0   rc=  1.620715   el= -1.757696   Ekb=  4.880948   kbcos=  0.293490
   l= 1   rc=  1.600578   el= -0.664256   Ekb= -6.909822   kbcos= -0.499892
   l= 2   rc=  1.703827   el=  0.002031   Ekb= -1.539219   kbcos= -0.006778
   l= 3   rc=  1.746967   el=  0.003153   Ekb= -0.568983   kbcos= -0.000967

KBgen: Total number of Kleinman-Bylander projectors:   16
atom: -------------------------------------------------------------------------

atom: SANKEY-TYPE ORBITALS:
atom: Selected multiple-zeta basis: split     

SPLIT: Orbitals with angular momentum L= 0

SPLIT: Basis orbitals for state 2s

SPLIT: PAO cut-off radius determined from an
SPLIT: energy shift=  0.010000 Ry

   izeta = 1
                 lambda =    1.000000
                     rc =    3.562532
                 energy =   -1.748399
                kinetic =    1.566246
    potential(screened) =   -3.314644
       potential(ionic) =  -11.226748

   izeta = 2
                 rmatch =    2.510382
              splitnorm =    0.150000
                 energy =   -1.500881
                kinetic =    2.383646
    potential(screened) =   -3.884527
       potential(ionic) =  -12.394458

SPLIT: Orbitals with angular momentum L= 1

SPLIT: Basis orbitals for state 2p

SPLIT: PAO cut-off radius determined from an
SPLIT: energy shift=  0.010000 Ry

   izeta = 1
                 lambda =    1.000000
                     rc =    4.351355
                 energy =   -0.655119
                kinetic =    4.580853
    potential(screened) =   -5.235971
       potential(ionic) =  -12.870995

   izeta = 2
                 rmatch =    2.606321
              splitnorm =    0.150000
                 energy =   -0.413552
                kinetic =    6.669338
    potential(screened) =   -7.082890
       potential(ionic) =  -15.557652

POLgen: Perturbative polarization orbital with L=  2

POLgen: Polarization orbital for state 2p

   izeta = 1
                     rc =    4.351355
                 energy =    2.225694
                kinetic =    4.473409
    potential(screened) =   -2.247715
       potential(ionic) =   -8.402441
atom: Total number of Sankey-type orbitals: 13

atm_pop: Valence configuration (for local Pseudopot. screening):
 2s( 2.00)                                                            
 2p( 4.00)                                                            
Vna: chval, zval:    6.00000   6.00000

Vna:  Cut-off radius for the neutral-atom potential:   4.351355
comcore: Pseudo-core radius Rcore=  1.377587

atom: _________________________________________________________________________

prinput: Basis input ----------------------------------------------------------

PAO.BasisType split     

%block ChemicalSpeciesLabel
    1    6 C                       # Species index, atomic number, species label
    2    1 H                       # Species index, atomic number, species label
    3    7 N                       # Species index, atomic number, species label
    4    8 O                       # Species index, atomic number, species label
%endblock ChemicalSpeciesLabel

%block PAO.Basis                 # Define Basis set
C                     2                    # Species label, number of l-shells
 n=2   0   2                         # n, l, Nzeta 
   4.518      3.432   
   1.000      1.000   
 n=2   1   2 P   1                   # n, l, Nzeta, Polarization, NzetaPol
   5.519      3.608   
   1.000      1.000   
H                     1                    # Species label, number of l-shells
 n=1   0   2 P   1                   # n, l, Nzeta, Polarization, NzetaPol
   5.205      3.903   
   1.000      1.000   
N                     2                    # Species label, number of l-shells
 n=2   0   2                         # n, l, Nzeta 
   3.971      2.905   
   1.000      1.000   
 n=2   1   2 P   1                   # n, l, Nzeta, Polarization, NzetaPol
   4.850      3.016   
   1.000      1.000   
O                     2                    # Species label, number of l-shells
 n=2   0   2                         # n, l, Nzeta 
   3.563      2.510   
   1.000      1.000   
 n=2   1   2 P   1                   # n, l, Nzeta, Polarization, NzetaPol
   4.351      2.606   
   1.000      1.000   
%endblock PAO.Basis

prinput: ----------------------------------------------------------------------

Dumping basis to NetCDF file C.ion.nc
Dumping basis to NetCDF file H.ion.nc
Dumping basis to NetCDF file N.ion.nc
Dumping basis to NetCDF file O.ion.nc
coor:   Atomic-coordinates input format  =     Cartesian coordinates
coor:                                          (in Angstroms)

siesta: Atomic coordinates (Bohr) and species
siesta:      5.61702  11.34006   7.96123  3        1
siesta:     10.45284   8.35429   5.17577  3        2
siesta:     10.90259  10.07017   9.64498  1        3
siesta:      8.63870   8.64342  10.55772  1        4
siesta:     11.73218   9.98135   7.08251  1        5
siesta:      6.13859   9.20656   9.72246  1        6
siesta:     10.33378   9.13853   2.99503  4        7
siesta:      3.88792  11.08306   6.43622  4        8
siesta:      9.85946   6.20189   5.80694  4        9
siesta:      6.72629  13.34506   8.32784  4       10
siesta:     12.24997  11.60651  11.37030  1       11
siesta:      8.98452   6.62897  12.28115  1       12
siesta:     13.82411  11.44400   6.31528  1       13
siesta:      4.09012   7.73257  10.58228  1       14
siesta:      6.93227   5.18333  13.12963  1       15
siesta:     14.33244  13.04460  10.58606  1       16
siesta:      4.48697   5.73135  12.27359  1       17
siesta:     15.11290  12.96901   8.05950  1       18
siesta:     11.64525  11.70100  13.32994  2       19
siesta:     10.87424   6.16977  12.94066  2       20
siesta:     14.47417  11.38731   4.36886  2       21
siesta:      2.17772   8.14642   9.96056  2       22
siesta:      7.23841   3.63376  14.44110  2       23
siesta:     15.33211  14.22567  11.93722  2       24
siesta:      2.89582   4.61074  12.92932  2       25
siesta:     16.72484  14.08584   7.44911  2       26

siesta: System type = molecule  

initatomlists: Number of atoms, orbitals, and projectors:     26   274   360

siesta: ******************** Simulation parameters ****************************
siesta:
siesta: The following are some of the parameters of the simulation.
siesta: A complete list of the parameters used, including default values,
siesta: can be found in file out.fdf
siesta:
redata: Spin configuration                          = none
redata: Number of spin components                   = 1
redata: Time-Reversal Symmetry                      = T
redata: Spin spiral                                 = F
redata: Long output                                 =   F
redata: Number of Atomic Species                    =        4
redata: Charge density info will appear in .RHO file
redata: Write Mulliken Pop.                         = NO
redata: Matel table size (NRTAB)                    =     1024
redata: Mesh Cutoff                                 =   400.0000 Ry
redata: Net charge of the system                    =     0.0000 |e|
redata: Min. number of SCF Iter                     =        0
redata: Max. number of SCF Iter                     =      500
redata: SCF convergence failure will abort job
redata: SCF mix quantity                            = Hamiltonian
redata: Mix DM or H after convergence               =   F
redata: Recompute H after scf cycle                 =   F
redata: Mix DM in first SCF step                    =   T
redata: Write Pulay info on disk                    =   F
redata: New DM Occupancy tolerance                  = 0.000000000001
redata: No kicks to SCF
redata: DM Mixing Weight for Kicks                  =     0.5000
redata: Require Harris convergence for SCF          =   F
redata: Harris energy tolerance for SCF             =     0.000100 eV
redata: Require DM convergence for SCF              =   T
redata: DM tolerance for SCF                        =     0.000100
redata: Require EDM convergence for SCF             =   F
redata: EDM tolerance for SCF                       =     0.001000 eV
redata: Require H convergence for SCF               =   T
redata: Hamiltonian tolerance for SCF               =     0.000100 eV
redata: Require (free) Energy convergence for SCF   =   F
redata: (free) Energy tolerance for SCF             =     0.000100 eV
redata: Using Saved Data (generic)                  =   F
redata: Use continuation files for DM               =   F
redata: Neglect nonoverlap interactions             =   F
redata: Method of Calculation                       = Diagonalization
redata: Electronic Temperature                      =   299.9869 K
redata: Fix the spin of the system                  =   F
redata: Dynamics option                             = CG coord. optimization
redata: Variable cell                               =   F
redata: Use continuation files for CG               =   F
redata: Max atomic displ per move                   =     0.1058 Ang
redata: Maximum number of optimization moves        =     1000
redata: Force tolerance                             =     0.0100 eV/Ang
mix.SCF: Pulay mixing                            = Pulay
mix.SCF:    Variant                              = stable
mix.SCF:    History steps                        = 5
mix.SCF:    Linear mixing weight                 =     0.250000
mix.SCF:    Mixing weight                        =     0.250000
mix.SCF:    SVD condition                        = 0.1000E-07
redata: Save all siesta data in one NC              =   F
redata: ***********************************************************************

%block SCF.Mixers
  Pulay
%endblock SCF.Mixers

%block SCF.Mixer.Pulay
  # Mixing method
  method pulay
  variant stable

  # Mixing options
  weight 0.2500
  weight.linear 0.2500
  history 5
%endblock SCF.Mixer.Pulay
 
DM_history_depth set to one: no extrapolation allowed by default for geometry relaxation
Size of DM history Fstack: 1
Total number of electrons:    90.000000
Total ionic charge:    90.000000

* ProcessorY, Blocksize:    6   5


* Orbital distribution balance (max,min):    10     5

 Kpoints in:            1 . Kpoints trimmed:            1

siesta: k-grid: Number of k-points =     1
siesta: k-grid: Cutoff (effective) =    25.000 Ang
siesta: k-grid: Supercell and displacements
siesta: k-grid:    1   0   0      0.000
siesta: k-grid:    0   1   0      0.000
siesta: k-grid:    0   0   1      0.000
 
diag: Algorithm                                     = D&C
diag: Parallel over k                               =   F
diag: Use parallel 2D distribution                  =   T
diag: Parallel block-size                           = 5
diag: Parallel distribution                         =     6 x     8
diag: Used triangular part                          = Lower
diag: Absolute tolerance                            =  0.100E-15
diag: Orthogonalization factor                      =  0.100E-05
diag: Memory factor                                 =  1.0000
 
 
ts: **************************************************************
ts: Save H and S matrices                           =    F
ts: Save DM and EDM matrices                        =    F
ts: Only save the overlap matrix S                  =    F
ts: **************************************************************
 
************************ Begin: TS CHECKS AND WARNINGS ************************
************************ End: TS CHECKS AND WARNINGS **************************


                     ====================================
                        Begin CG opt. move =      0
                     ====================================

outcell: Unit cell vectors (Ang):
       50.000000    0.000000    0.000000
        0.000000   50.000000    0.000000
        0.000000    0.000000   50.000000

outcell: Cell vector modules (Ang)   :   50.000000   50.000000   50.000000
outcell: Cell angles (23,13,12) (deg):     90.0000     90.0000     90.0000
outcell: Cell volume (Ang**3)        : 125000.0000
<dSpData1D:S at geom step 0
  <sparsity:sparsity for geom step 0
    nrows_g=274 nrows=10 sparsity=.0346 nnzs=2601, refcount: 7>
  <dData1D:(new from dSpData1D) n=2601, refcount: 1>
refcount: 1>
new_DM -- step:     1
Initializing Density Matrix...
DM filled with atomic data:
<dSpData2D:DM initialized from atoms
  <sparsity:sparsity for geom step 0
    nrows_g=274 nrows=10 sparsity=.0346 nnzs=2601, refcount: 8>
  <dData2D:DM n=2601 m=1, refcount: 1>
refcount: 1>
No. of atoms with KB's overlaping orbs in proc 0. Max # of overlaps:      23     203
New grid distribution:   1
           1       1:  320    1:   54    1:   40
           2       1:  320    1:   54   41:   80
           3       1:  320    1:   54   81:  120
           4       1:  320    1:   54  121:  160
           5       1:  320    1:   54  161:  200
           6       1:  320    1:   54  201:  240
           7       1:  320    1:   54  241:  280
           8       1:  320    1:   54  281:  320
           9       1:  320   55:  108    1:   40
          10       1:  320   55:  108   41:   80
          11       1:  320   55:  108   81:  120
          12       1:  320   55:  108  121:  160
          13       1:  320   55:  108  161:  200
          14       1:  320   55:  108  201:  240
          15       1:  320   55:  108  241:  280
          16       1:  320   55:  108  281:  320
          17       1:  320  109:  161    1:   40
          18       1:  320  109:  161   41:   80
          19       1:  320  109:  161   81:  120
          20       1:  320  109:  161  121:  160
          21       1:  320  109:  161  161:  200
          22       1:  320  109:  161  201:  240
          23       1:  320  109:  161  241:  280
          24       1:  320  109:  161  281:  320
          25       1:  320  162:  214    1:   40
          26       1:  320  162:  214   41:   80
          27       1:  320  162:  214   81:  120
          28       1:  320  162:  214  121:  160
          29       1:  320  162:  214  161:  200
          30       1:  320  162:  214  201:  240
          31       1:  320  162:  214  241:  280
          32       1:  320  162:  214  281:  320
          33       1:  320  215:  267    1:   40
          34       1:  320  215:  267   41:   80
          35       1:  320  215:  267   81:  120
          36       1:  320  215:  267  121:  160
          37       1:  320  215:  267  161:  200
          38       1:  320  215:  267  201:  240
          39       1:  320  215:  267  241:  280
          40       1:  320  215:  267  281:  320
          41       1:  320  268:  320    1:   40
          42       1:  320  268:  320   41:   80
          43       1:  320  268:  320   81:  120
          44       1:  320  268:  320  121:  160
          45       1:  320  268:  320  161:  200
          46       1:  320  268:  320  201:  240
          47       1:  320  268:  320  241:  280
          48       1:  320  268:  320  281:  320

InitMesh: MESH =   640 x   640 x   640 =   262144000
InitMesh: (bp) =   320 x   320 x   320 =    32768000
InitMesh: Mesh cutoff (required, used) =   400.000   452.816 Ry
ExtMesh (bp) on 0 =   396 x   130 x   116 =     5971680
New grid distribution:   2
           1      41:  320   36:   40    1:   26
           2       1:   25    1:   19   35:   42
           3      26:  320    1:   19   43:  320
           4       1:   25    1:   18   43:  320
           5      34:  320   20:   32   43:  320
           6      45:  320   33:   40   35:   79
           7      26:   33   20:   32   43:  320
           8       1:   40   36:   38    1:   27
           9      19:   25   19:   32   43:  320
          10      45:   53   41:  320   35:   79
          11      45:  320   33:  128   80:  320
          12      25:   32   27:   35    1:   28
          13       1:   32   37:  320   41:  320
          14       1:   18   19:   32   43:  320
          15       1:   32    1:   26    1:   28
          16       1:   18   20:   32   35:   42
          17      31:   40   39:  320    1:   27
          18      54:  320   41:  320   35:   79
          19      36:  320   23:   32   35:   42
          20      33:   41   28:   35    1:   25
          21      33:   44   37:  320   41:  320
          22      33:  320    1:   27   26:   34
          23      33:   44   37:  320   35:   40
          24       1:   23   24:   35   29:   34
          25      41:   50   41:  320    1:   26
          26      41:   49   42:  320   27:   34
          27      45:  182  129:  320   80:  320
          28       1:   40   36:   39   28:   34
          29     183:  320  129:  320   80:  320
          30       1:   30   40:  320   28:   34
          31      42:  320   28:   35   26:   34
          32       1:   44   33:   36   35:   40
          33      51:  320   41:  320    1:   26
          34      42:  320   28:   35    1:   25
          35      31:   40   40:  320   28:   34
          36      26:   35   23:   32   35:   42
          37       1:   30   39:  320    1:   27
          38       1:   32   37:  320   35:   40
          39      41:  320   36:   41   27:   34
          40      19:   25   20:   32   35:   42
          41      50:  320   42:  320   27:   34
          42      26:  320    1:   22   35:   42
          43       1:   24   27:   35    1:   28
          44      33:   41   28:   35   26:   34
          45      33:  320    1:   27    1:   25
          46       1:   44   33:   36   41:  320
          47       1:   32    1:   23   29:   34
          48      24:   32   24:   35   29:   34
New grid distribution:   3
           1       1:   33    1:   14   30:   43
           2      52:  320   26:   57   44:   55
           3     100:  320   23:   57   56:  320
           4      38:  320    1:   22   56:  320
           5     237:  320  146:  320  183:  320
           6      38:   99   23:   57   56:  320
           7      34:  320    1:   20   27:   43
           8       1:   47   38:   42    1:   26
           9      31:   47   43:  320    1:   26
          10       1:   22   16:   57   44:   52
          11     153:  320   58:  145   44:  182
          12       1:  152   58:  132   44:  167
          13       1:   25   14:   57   53:  320
          14       1:  152   58:  145  168:  320
          15      50:  320   25:   37    1:   26
          16      23:   37   16:   57   44:   52
          17      67:  320   48:  320    1:   25
          18      34:  320    1:   24    1:   26
          19      38:  320    1:   25   44:   55
          20      21:   33   23:   37    1:   29
          21      26:   37   14:   57   53:  320
          22     153:  320   58:  145  183:  320
          23      52:  320   21:   37   27:   43
          24       1:   47   38:   44   27:   43
          25      30:   47   45:  320   27:   43
          26       1:   17   15:   37   30:   43
          27      65:  152  133:  320   44:  167
          28       1:   64  133:  320   44:  167
          29       1:   29   45:  320   27:   43
          30       1:   76  146:  320  168:  320
          31      48:  320   38:   47    1:   25
          32      34:   49   25:   37    1:   26
          33      64:  320   49:  320   26:   43
          34      48:   63   49:  320   26:   43
          35     153:  236  146:  320   44:  182
          36      38:   51   26:   57   44:   55
          37      48:   66   48:  320    1:   25
          38      77:  152  146:  320  168:  320
          39      48:  320   38:   48   26:   43
          40      34:   51   21:   37   27:   43
          41       1:   30   43:  320    1:   26
          42       1:   33    1:   22    1:   29
          43     237:  320  146:  320   44:  182
          44      18:   33   15:   37   30:   43
          45       1:   37    1:   13   53:  320
          46     153:  236  146:  320  183:  320
          47       1:   20   23:   37    1:   29
          48       1:   37    1:   15   44:   52
Setting up quadratic distribution...
ExtMesh (bp) on 0 =   356 x    81 x   102 =     2941272
PhiOnMesh: Number of (b)points on node 0 =                36400
PhiOnMesh: nlist on node 0 =               117274

stepf: Fermi-Dirac step function

siesta: Program's energy decomposition (eV):
siesta: Ebs     =     -1168.605889
siesta: Eions   =      5827.588666
siesta: Ena     =       667.630665
siesta: Ekin    =      3099.194523
siesta: Enl     =      -936.059683
siesta: Eso     =         0.000000
siesta: Edftu   =         0.000000
siesta: DEna    =       -84.241401
siesta: DUscf   =        25.098562
siesta: DUext   =         0.000000
siesta: Exc     =     -1257.437452
siesta: eta*DQ  =         0.000000
siesta: Emadel  =         0.000000
siesta: Emeta   =         0.000000
siesta: Emolmec =         0.000000
siesta: Ekinion =         0.000000
siesta: Eharris =     -4290.903848
siesta: Etot    =     -4313.403452
siesta: FreeEng =     -4313.403452

        iscf     Eharris(eV)        E_KS(eV)     FreeEng(eV)     dDmax    Ef(eV) dHmax(eV)
   scf:    1    -4290.903848    -4313.403452    -4313.403452  1.953414 -5.333456  8.975355
timer: Routine,Calls,Time,% = IterSCF        1      14.533  38.84
   scf:    2    -4327.356131    -4322.952062    -4322.952062  0.109422 -5.951795  3.341692
   scf:    3    -4324.190537    -4323.673252    -4323.673252  0.037848 -5.720526  1.375628
   scf:    4    -4323.961681    -4323.846406    -4323.846406  0.031350 -5.419280  0.495547
   scf:    5    -4323.881393    -4323.867571    -4323.867571  0.009640 -5.285002  0.231462
   scf:    6    -4323.874160    -4323.871680    -4323.871680  0.004096 -5.245195  0.074131
   scf:    7    -4323.873049    -4323.872431    -4323.872431  0.002078 -5.233522  0.031382
   scf:    8    -4323.872859    -4323.872658    -4323.872658  0.001158 -5.228371  0.010215
   scf:    9    -4323.872734    -4323.872699    -4323.872699  0.000722 -5.226493  0.004997
   scf:   10    -4323.872712    -4323.872706    -4323.872706  0.000360 -5.224671  0.001229
   scf:   11    -4323.872707    -4323.872707    -4323.872707  0.000076 -5.224352  0.000308
   scf:   12    -4323.872707    -4323.872707    -4323.872707  0.000034 -5.224268  0.000153
   scf:   13    -4323.872707    -4323.872707    -4323.872707  0.000012 -5.224236  0.000070

SCF Convergence by DM+H criterion
max |DM_out - DM_in|         :     0.0000122062
max |H_out - H_in|      (eV) :     0.0000699108
SCF cycle converged after 13 iterations

Using DM_out to compute the final energy and forces
No. of atoms with KB's overlaping orbs in proc 0. Max # of overlaps:      23     203

siesta: E_KS(eV) =            -4323.8727

siesta: E_KS - E_eggbox =     -4323.8727

siesta: Atomic forces (eV/Ang):
----------------------------------------
   Tot   -0.011294   -0.002789   -0.027438
----------------------------------------
   Max    1.270438
   Res    0.463698    sqrt( Sum f_i^2 / 3N )
----------------------------------------
   Max    1.270438    constrained

Stress tensor Voigt[x,y,z,yz,xz,xy] (kbar):       -0.10       -0.07       -0.08        0.02        0.00       -0.04
(Free)E + p*V (eV/cell)    -4317.3320
Target enthalpy (eV/cell)    -4323.8727

                     ====================================
                        Begin CG opt. move =      1
                     ====================================

outcell: Unit cell vectors (Ang):
       50.000000    0.000000    0.000000
        0.000000   50.000000    0.000000
        0.000000    0.000000   50.000000

outcell: Cell vector modules (Ang)   :   50.000000   50.000000   50.000000
outcell: Cell angles (23,13,12) (deg):     90.0000     90.0000     90.0000
outcell: Cell volume (Ang**3)        : 125000.0000
<dSpData1D:S at geom step 1
  <sparsity:sparsity for geom step 1
    nrows_g=274 nrows=10 sparsity=.0346 nnzs=2596, refcount: 7>
  <dData1D:(new from dSpData1D) n=2596, refcount: 1>
refcount: 1>
new_DM -- step:     2
Re-using DM from previous geometries...
Number of DMs in history: 1
 DM extrapolation coefficients: 
1   1.00000
New DM after history re-use:
<dSpData2D:SpM extrapolated using coords
  <sparsity:sparsity for geom step 1
    nrows_g=274 nrows=10 sparsity=.0346 nnzs=2596, refcount: 9>
  <dData2D:(temp array for extrapolation) n=2596 m=1, refcount: 1>
refcount: 1>
Note: For starting DM, Qtot, Tr[D*S] =         90.00000000         89.76023410
No. of atoms with KB's overlaping orbs in proc 0. Max # of overlaps:      23     203
New grid distribution:   1
           1       1:  320    1:   54    1:   40
           2       1:  320    1:   54   41:   80
           3       1:  320    1:   54   81:  120
           4       1:  320    1:   54  121:  160
           5       1:  320    1:   54  161:  200
           6       1:  320    1:   54  201:  240
           7       1:  320    1:   54  241:  280
           8       1:  320    1:   54  281:  320
           9       1:  320   55:  108    1:   40
          10       1:  320   55:  108   41:   80
          11       1:  320   55:  108   81:  120
          12       1:  320   55:  108  121:  160
          13       1:  320   55:  108  161:  200
          14       1:  320   55:  108  201:  240
          15       1:  320   55:  108  241:  280
          16       1:  320   55:  108  281:  320
          17       1:  320  109:  161    1:   40
          18       1:  320  109:  161   41:   80
          19       1:  320  109:  161   81:  120
          20       1:  320  109:  161  121:  160
          21       1:  320  109:  161  161:  200
          22       1:  320  109:  161  201:  240
          23       1:  320  109:  161  241:  280
          24       1:  320  109:  161  281:  320
          25       1:  320  162:  214    1:   40
          26       1:  320  162:  214   41:   80
          27       1:  320  162:  214   81:  120
          28       1:  320  162:  214  121:  160
          29       1:  320  162:  214  161:  200
          30       1:  320  162:  214  201:  240
          31       1:  320  162:  214  241:  280
          32       1:  320  162:  214  281:  320
          33       1:  320  215:  267    1:   40
          34       1:  320  215:  267   41:   80
          35       1:  320  215:  267   81:  120
          36       1:  320  215:  267  121:  160
          37       1:  320  215:  267  161:  200
          38       1:  320  215:  267  201:  240
          39       1:  320  215:  267  241:  280
          40       1:  320  215:  267  281:  320
          41       1:  320  268:  320    1:   40
          42       1:  320  268:  320   41:   80
          43       1:  320  268:  320   81:  120
          44       1:  320  268:  320  121:  160
          45       1:  320  268:  320  161:  200
          46       1:  320  268:  320  201:  240
          47       1:  320  268:  320  241:  280
          48       1:  320  268:  320  281:  320

InitMesh: MESH =   640 x   640 x   640 =   262144000
InitMesh: (bp) =   320 x   320 x   320 =    32768000
InitMesh: Mesh cutoff (required, used) =   400.000   452.816 Ry
ExtMesh (bp) on 0 =   396 x   130 x   116 =     5971680
New grid distribution:   2
           1      41:  320   36:   40    1:   26
           2       1:   25    1:   19   35:   42
           3      26:  320    1:   19   43:  320
           4       1:   25    1:   18   43:  320
           5      34:  320   20:   32   43:  320
           6      45:  320   33:   40   35:   79
           7      26:   33   20:   32   43:  320
           8       1:   40   36:   38    1:   27
           9      19:   25   19:   32   43:  320
          10      45:   53   41:  320   35:   79
          11      45:  320   33:  128   80:  320
          12      25:   32   27:   35    1:   28
          13       1:   32   37:  320   41:  320
          14       1:   18   19:   32   43:  320
          15       1:   32    1:   26    1:   28
          16       1:   18   20:   32   35:   42
          17      31:   40   39:  320    1:   27
          18      54:  320   41:  320   35:   79
          19      36:  320   23:   32   35:   42
          20      33:   41   28:   35    1:   25
          21      33:   44   37:  320   41:  320
          22      33:  320    1:   27   26:   34
          23      33:   44   37:  320   35:   40
          24       1:   23   24:   35   29:   34
          25      41:   50   41:  320    1:   26
          26      41:   49   42:  320   27:   34
          27      45:  182  129:  320   80:  320
          28       1:   40   36:   39   28:   34
          29     183:  320  129:  320   80:  320
          30       1:   30   40:  320   28:   34
          31      42:  320   28:   35   26:   34
          32       1:   44   33:   36   35:   40
          33      51:  320   41:  320    1:   26
          34      42:  320   28:   35    1:   25
          35      31:   40   40:  320   28:   34
          36      26:   35   23:   32   35:   42
          37       1:   30   39:  320    1:   27
          38       1:   32   37:  320   35:   40
          39      41:  320   36:   41   27:   34
          40      19:   25   20:   32   35:   42
          41      50:  320   42:  320   27:   34
          42      26:  320    1:   22   35:   42
          43       1:   24   27:   35    1:   28
          44      33:   41   28:   35   26:   34
          45      33:  320    1:   27    1:   25
          46       1:   44   33:   36   41:  320
          47       1:   32    1:   23   29:   34
          48      24:   32   24:   35   29:   34
New grid distribution:   3
           1     153:  236  146:  320  183:  320
           2      52:  320   26:   57   44:   55
           3      38:  320    1:   23   56:  320
           4       1:   33    1:   14   30:   43
           5      97:  320   24:   57   56:  320
           6      38:   96   24:   57   56:  320
           7      34:  320    1:   20   27:   43
           8       1:   47   38:   42    1:   26
           9      31:   47   43:  320    1:   26
          10       1:   22   16:   57   44:   52
          11     153:  320   58:  145   44:  182
          12       1:  152   58:  132   44:  166
          13       1:   25   14:   57   53:  320
          14       1:  152   58:  145  167:  320
          15      50:  320   25:   37    1:   26
          16      23:   37   16:   57   44:   52
          17      67:  320   48:  320    1:   25
          18      34:  320    1:   24    1:   26
          19      38:  320    1:   25   44:   55
          20      21:   33   23:   37    1:   29
          21      26:   37   14:   57   53:  320
          22     153:  320   58:  145  183:  320
          23      52:  320   21:   37   27:   43
          24       1:   47   38:   44   27:   43
          25      30:   47   45:  320   27:   43
          26       1:   17   15:   37   30:   43
          27     153:  236  146:  320   44:  182
          28       1:   64  133:  320   44:  166
          29       1:   29   45:  320   27:   43
          30       1:   76  146:  320  167:  320
          31      48:  320   38:   47    1:   25
          32      34:   49   25:   37    1:   26
          33      64:  320   49:  320   26:   43
          34      48:   63   49:  320   26:   43
          35     237:  320  146:  320   44:  182
          36      38:   51   26:   57   44:   55
          37      48:   66   48:  320    1:   25
          38      77:  152  146:  320  167:  320
          39      48:  320   38:   48   26:   43
          40      34:   51   21:   37   27:   43
          41       1:   30   43:  320    1:   26
          42       1:   33    1:   22    1:   29
          43      65:  152  133:  320   44:  166
          44      18:   33   15:   37   30:   43
          45       1:   37    1:   13   53:  320
          46     237:  320  146:  320  183:  320
          47       1:   20   23:   37    1:   29
          48       1:   37    1:   15   44:   52
Setting up quadratic distribution...
ExtMesh (bp) on 0 =   356 x    81 x   102 =     2941272
PhiOnMesh: Number of (b)points on node 0 =                36400
PhiOnMesh: nlist on node 0 =               117741

        iscf     Eharris(eV)        E_KS(eV)     FreeEng(eV)     dDmax    Ef(eV) dHmax(eV)
   scf:    1    -4325.846246    -4323.685624    -4323.685624  0.063381 -4.755388  1.961392
   scf:    2    -4319.597055    -4322.611079    -4322.611079  0.068481 -4.065132  4.740296
   scf:    3    -4324.342159    -4323.962490    -4323.962490  0.053658 -4.487220  0.103675
   scf:    4    -4323.963786    -4323.963635    -4323.963635  0.005196 -4.479672  0.050822
   scf:    5    -4323.964155    -4323.963988    -4323.963988  0.002275 -4.476412  0.020067
   scf:    6    -4323.964269    -4323.964145    -4323.964145  0.001572 -4.473382  0.005587
   scf:    7    -4323.964173    -4323.964161    -4323.964161  0.000560 -4.472280  0.002589
   scf:    8    -4323.964163    -4323.964162    -4323.964162  0.000144 -4.471963  0.001213
   scf:    9    -4323.964163    -4323.964162    -4323.964162  0.000056 -4.471830  0.000455
   scf:   10    -4323.964162    -4323.964162    -4323.964162  0.000012 -4.471819  0.000219
   scf:   11    -4323.964162    -4323.964162    -4323.964162  0.000005 -4.471818  0.000080

SCF Convergence by DM+H criterion
max |DM_out - DM_in|         :     0.0000052152
max |H_out - H_in|      (eV) :     0.0000799036
SCF cycle converged after 11 iterations

Using DM_out to compute the final energy and forces
No. of atoms with KB's overlaping orbs in proc 0. Max # of overlaps:      23     203

siesta: E_KS(eV) =            -4323.9642

siesta: Atomic forces (eV/Ang):
----------------------------------------
   Tot   -0.020944    0.018137   -0.019179
----------------------------------------
   Max    1.511943
   Res    0.474579    sqrt( Sum f_i^2 / 3N )
----------------------------------------
   Max    1.511943    constrained

Stress tensor Voigt[x,y,z,yz,xz,xy] (kbar):       -0.05        0.02       -0.00        0.00        0.03       -0.01
(Free)E + p*V (eV/cell)    -4323.3659
Target enthalpy (eV/cell)    -4323.9642

                     ====================================
                        Begin CG opt. move =      2
                     ====================================

outcell: Unit cell vectors (Ang):
       50.000000    0.000000    0.000000
        0.000000   50.000000    0.000000
        0.000000    0.000000   50.000000

outcell: Cell vector modules (Ang)   :   50.000000   50.000000   50.000000
outcell: Cell angles (23,13,12) (deg):     90.0000     90.0000     90.0000
outcell: Cell volume (Ang**3)        : 125000.0000
<dSpData1D:S at geom step 2
  <sparsity:sparsity for geom step 2
    nrows_g=274 nrows=10 sparsity=.0346 nnzs=2596, refcount: 7>
  <dData1D:(new from dSpData1D) n=2596, refcount: 1>
refcount: 1>
new_DM -- step:     3
Re-using DM from previous geometries...
Number of DMs in history: 1
 DM extrapolation coefficients: 
1   1.00000
New DM after history re-use:
<dSpData2D:SpM extrapolated using coords
  <sparsity:sparsity for geom step 2
    nrows_g=274 nrows=10 sparsity=.0346 nnzs=2596, refcount: 9>
  <dData2D:(temp array for extrapolation) n=2596 m=1, refcount: 1>
refcount: 1>
No. of atoms with KB's overlaping orbs in proc 0. Max # of overlaps:      23     203
New grid distribution:   1
           1       1:  320    1:   54    1:   40
           2       1:  320    1:   54   41:   80
           3       1:  320    1:   54   81:  120
           4       1:  320    1:   54  121:  160
           5       1:  320    1:   54  161:  200
           6       1:  320    1:   54  201:  240
           7       1:  320    1:   54  241:  280
           8       1:  320    1:   54  281:  320
           9       1:  320   55:  108    1:   40
          10       1:  320   55:  108   41:   80
          11       1:  320   55:  108   81:  120
          12       1:  320   55:  108  121:  160
          13       1:  320   55:  108  161:  200
          14       1:  320   55:  108  201:  240
          15       1:  320   55:  108  241:  280
          16       1:  320   55:  108  281:  320
          17       1:  320  109:  161    1:   40
          18       1:  320  109:  161   41:   80
          19       1:  320  109:  161   81:  120
          20       1:  320  109:  161  121:  160
          21       1:  320  109:  161  161:  200
          22       1:  320  109:  161  201:  240
          23       1:  320  109:  161  241:  280
          24       1:  320  109:  161  281:  320
          25       1:  320  162:  214    1:   40
          26       1:  320  162:  214   41:   80
          27       1:  320  162:  214   81:  120
          28       1:  320  162:  214  121:  160
          29       1:  320  162:  214  161:  200
          30       1:  320  162:  214  201:  240
          31       1:  320  162:  214  241:  280
          32       1:  320  162:  214  281:  320
          33       1:  320  215:  267    1:   40
          34       1:  320  215:  267   41:   80
          35       1:  320  215:  267   81:  120
          36       1:  320  215:  267  121:  160
          37       1:  320  215:  267  161:  200
          38       1:  320  215:  267  201:  240
          39       1:  320  215:  267  241:  280
          40       1:  320  215:  267  281:  320
          41       1:  320  268:  320    1:   40
          42       1:  320  268:  320   41:   80
          43       1:  320  268:  320   81:  120
          44       1:  320  268:  320  121:  160
          45       1:  320  268:  320  161:  200
          46       1:  320  268:  320  201:  240
          47       1:  320  268:  320  241:  280
          48       1:  320  268:  320  281:  320

InitMesh: MESH =   640 x   640 x   640 =   262144000
InitMesh: (bp) =   320 x   320 x   320 =    32768000
InitMesh: Mesh cutoff (required, used) =   400.000   452.816 Ry
ExtMesh (bp) on 0 =   396 x   130 x   116 =     5971680
New grid distribution:   2
           1      41:  320   36:   40    1:   26
           2       1:   25    1:   19   35:   42
           3      26:  320    1:   19   43:  320
           4       1:   25    1:   18   43:  320
           5      34:  320   20:   32   43:  320
           6      45:  320   33:   40   35:   79
           7      26:   33   20:   32   43:  320
           8       1:   40   36:   38    1:   27
           9      19:   25   19:   32   43:  320
          10      45:   53   41:  320   35:   79
          11      45:  320   33:  128   80:  320
          12      25:   32   27:   35    1:   28
          13       1:   32   37:  320   41:  320
          14       1:   18   19:   32   43:  320
          15       1:   32    1:   26    1:   28
          16       1:   18   20:   32   35:   42
          17      31:   40   39:  320    1:   27
          18      54:  320   41:  320   35:   79
          19      36:  320   23:   32   35:   42
          20      33:   41   28:   35    1:   25
          21      33:   44   37:  320   41:  320
          22      33:  320    1:   27   26:   34
          23      33:   44   37:  320   35:   40
          24       1:   23   24:   35   29:   34
          25      41:   50   41:  320    1:   26
          26      41:   49   42:  320   27:   34
          27      45:  182  129:  320   80:  320
          28       1:   40   36:   39   28:   34
          29     183:  320  129:  320   80:  320
          30       1:   30   40:  320   28:   34
          31      42:  320   28:   35   26:   34
          32       1:   44   33:   36   35:   40
          33      51:  320   41:  320    1:   26
          34      42:  320   28:   35    1:   25
          35      31:   40   40:  320   28:   34
          36      26:   35   23:   32   35:   42
          37       1:   30   39:  320    1:   27
          38       1:   32   37:  320   35:   40
          39      41:  320   36:   41   27:   34
          40      19:   25   20:   32   35:   42
          41      50:  320   42:  320   27:   34
          42      26:  320    1:   22   35:   42
          43       1:   24   27:   35    1:   28
          44      33:   41   28:   35   26:   34
          45      33:  320    1:   27    1:   25
          46       1:   44   33:   36   41:  320
          47       1:   32    1:   23   29:   34
          48      24:   32   24:   35   29:   34
New grid distribution:   3
           1     153:  236  146:  320  183:  320
           2      52:  320   26:   57   44:   55
           3      38:  320    1:   23   56:  320
           4       1:   33    1:   14   30:   43
           5      98:  320   24:   57   56:  320
           6      38:   97   24:   57   56:  320
           7      34:  320    1:   20   27:   43
           8       1:   47   38:   42    1:   26
           9      31:   47   43:  320    1:   26
          10       1:   22   16:   57   44:   52
          11     153:  320   58:  145   44:  182
          12       1:  152   58:  132   44:  166
          13       1:   25   14:   57   53:  320
          14       1:  152   58:  145  167:  320
          15      50:  320   25:   37    1:   26
          16      23:   37   16:   57   44:   52
          17      67:  320   48:  320    1:   25
          18      34:  320    1:   24    1:   26
          19      38:  320    1:   25   44:   55
          20      21:   33   23:   37    1:   29
          21      26:   37   14:   57   53:  320
          22     153:  320   58:  145  183:  320
          23      52:  320   21:   37   27:   43
          24       1:   47   38:   44   27:   43
          25      30:   47   45:  320   27:   43
          26       1:   17   15:   37   30:   43
          27     153:  236  146:  320   44:  182
          28       1:   64  133:  320   44:  166
          29       1:   29   45:  320   27:   43
          30       1:   76  146:  320  167:  320
          31      48:  320   38:   47    1:   25
          32      34:   49   25:   37    1:   26
          33      64:  320   49:  320   26:   43
          34      48:   63   49:  320   26:   43
          35     237:  320  146:  320   44:  182
          36      38:   51   26:   57   44:   55
          37      48:   66   48:  320    1:   25
          38      77:  152  146:  320  167:  320
          39      48:  320   38:   48   26:   43
          40      34:   51   21:   37   27:   43
          41       1:   30   43:  320    1:   26
          42       1:   33    1:   22    1:   29
          43      65:  152  133:  320   44:  166
          44      18:   33   15:   37   30:   43
          45       1:   37    1:   13   53:  320
          46     237:  320  146:  320  183:  320
          47       1:   20   23:   37    1:   29
          48       1:   37    1:   15   44:   52
Setting up quadratic distribution...
ExtMesh (bp) on 0 =   356 x    81 x   102 =     2941272
PhiOnMesh: Number of (b)points on node 0 =                36400
PhiOnMesh: nlist on node 0 =               117570

        iscf     Eharris(eV)        E_KS(eV)     FreeEng(eV)     dDmax    Ef(eV) dHmax(eV)
   scf:    1    -4322.986509    -4323.976978    -4323.976978  0.022449 -4.638662  0.659780
   scf:    2    -4323.523659    -4323.856826    -4323.856826  0.020725 -4.853075  1.620132
   scf:    3    -4324.047410    -4324.006467    -4324.006467  0.015430 -4.720137  0.034566
   scf:    4    -4324.006679    -4324.006615    -4324.006615  0.001278 -4.726859  0.013323
   scf:    5    -4324.006658    -4324.006642    -4324.006642  0.000645 -4.727703  0.005961
   scf:    6    -4324.006667    -4324.006656    -4324.006656  0.000494 -4.728502  0.001755
   scf:    7    -4324.006659    -4324.006658    -4324.006658  0.000141 -4.728873  0.000848
   scf:    8    -4324.006658    -4324.006658    -4324.006658  0.000052 -4.728992  0.000340
   scf:    9    -4324.006658    -4324.006658    -4324.006658  0.000021 -4.729018  0.000092

SCF Convergence by DM+H criterion
max |DM_out - DM_in|         :     0.0000205816
max |H_out - H_in|      (eV) :     0.0000918267
SCF cycle converged after 9 iterations

Using DM_out to compute the final energy and forces
No. of atoms with KB's overlaping orbs in proc 0. Max # of overlaps:      23     203

siesta: E_KS(eV) =            -4324.0067

siesta: Atomic forces (eV/Ang):
----------------------------------------
   Tot   -0.004817    0.018733   -0.032241
----------------------------------------
   Max    0.879457
   Res    0.280489    sqrt( Sum f_i^2 / 3N )
----------------------------------------
   Max    0.879457    constrained

Stress tensor Voigt[x,y,z,yz,xz,xy] (kbar):       -0.06       -0.00       -0.03        0.01        0.02       -0.02
(Free)E + p*V (eV/cell)    -4321.5196
Target enthalpy (eV/cell)    -4324.0067

cgvc: Finished line minimization    1.  Mean atomic displacement =    0.0257

                     ====================================
                        Begin CG opt. move =      3
                     ====================================

outcell: Unit cell vectors (Ang):
       50.000000    0.000000    0.000000
        0.000000   50.000000    0.000000
        0.000000    0.000000   50.000000

outcell: Cell vector modules (Ang)   :   50.000000   50.000000   50.000000
outcell: Cell angles (23,13,12) (deg):     90.0000     90.0000     90.0000
outcell: Cell volume (Ang**3)        : 125000.0000
<dSpData1D:S at geom step 3
  <sparsity:sparsity for geom step 3
    nrows_g=274 nrows=10 sparsity=.0345 nnzs=2588, refcount: 7>
  <dData1D:(new from dSpData1D) n=2588, refcount: 1>
refcount: 1>
new_DM -- step:     4
Re-using DM from previous geometries...
Number of DMs in history: 1
 DM extrapolation coefficients: 
1   1.00000
New DM after history re-use:
<dSpData2D:SpM extrapolated using coords
  <sparsity:sparsity for geom step 3
    nrows_g=274 nrows=10 sparsity=.0345 nnzs=2588, refcount: 9>
  <dData2D:(temp array for extrapolation) n=2588 m=1, refcount: 1>
refcount: 1>
No. of atoms with KB's overlaping orbs in proc 0. Max # of overlaps:      23     203
New grid distribution:   1
           1       1:  320    1:   54    1:   40
           2       1:  320    1:   54   41:   80
           3       1:  320    1:   54   81:  120
           4       1:  320    1:   54  121:  160
           5       1:  320    1:   54  161:  200
           6       1:  320    1:   54  201:  240
           7       1:  320    1:   54  241:  280
           8       1:  320    1:   54  281:  320
           9       1:  320   55:  108    1:   40
          10       1:  320   55:  108   41:   80
          11       1:  320   55:  108   81:  120
          12       1:  320   55:  108  121:  160
          13       1:  320   55:  108  161:  200
          14       1:  320   55:  108  201:  240
          15       1:  320   55:  108  241:  280
          16       1:  320   55:  108  281:  320
          17       1:  320  109:  161    1:   40
          18       1:  320  109:  161   41:   80
          19       1:  320  109:  161   81:  120
          20       1:  320  109:  161  121:  160
          21       1:  320  109:  161  161:  200
          22       1:  320  109:  161  201:  240
          23       1:  320  109:  161  241:  280
          24       1:  320  109:  161  281:  320
          25       1:  320  162:  214    1:   40
          26       1:  320  162:  214   41:   80
          27       1:  320  162:  214   81:  120
          28       1:  320  162:  214  121:  160
          29       1:  320  162:  214  161:  200
          30       1:  320  162:  214  201:  240
          31       1:  320  162:  214  241:  280
          32       1:  320  162:  214  281:  320
          33       1:  320  215:  267    1:   40
          34       1:  320  215:  267   41:   80
          35       1:  320  215:  267   81:  120
          36       1:  320  215:  267  121:  160
          37       1:  320  215:  267  161:  200
          38       1:  320  215:  267  201:  240
          39       1:  320  215:  267  241:  280
          40       1:  320  215:  267  281:  320
          41       1:  320  268:  320    1:   40
          42       1:  320  268:  320   41:   80
          43       1:  320  268:  320   81:  120
          44       1:  320  268:  320  121:  160
          45       1:  320  268:  320  161:  200
          46       1:  320  268:  320  201:  240
          47       1:  320  268:  320  241:  280
          48       1:  320  268:  320  281:  320

InitMesh: MESH =   640 x   640 x   640 =   262144000
InitMesh: (bp) =   320 x   320 x   320 =    32768000
InitMesh: Mesh cutoff (required, used) =   400.000   452.816 Ry
ExtMesh (bp) on 0 =   396 x   130 x   116 =     5971680
New grid distribution:   2
           1      41:  320   36:   40    1:   26
           2       1:   25    1:   19   35:   42
           3      26:  320    1:   19   43:  320
           4       1:   25    1:   18   43:  320
           5      34:  320   20:   32   43:  320
           6      45:  320   33:   40   35:   80
           7      26:   33   20:   32   43:  320
           8       1:   40   36:   38    1:   27
           9      19:   25   19:   32   43:  320
          10      45:   53   41:  320   35:   80
          11      45:  320   33:  128   81:  320
          12      25:   32   27:   35    1:   28
          13       1:   32   37:  320   41:  320
          14       1:   18   19:   32   43:  320
          15       1:   32    1:   26    1:   28
          16       1:   18   20:   32   35:   42
          17      31:   40   39:  320    1:   27
          18      54:  320   41:  320   35:   80
          19      36:  320   23:   32   35:   42
          20      33:   41   28:   35    1:   25
          21      33:   44   37:  320   41:  320
          22      33:  320    1:   27   26:   34
          23      33:   44   37:  320   35:   40
          24       1:   23   24:   35   29:   34
          25      41:   50   41:  320    1:   26
          26      41:   49   42:  320   27:   34
          27      45:  182  129:  320   81:  320
          28       1:   40   36:   39   28:   34
          29     183:  320  129:  320   81:  320
          30       1:   30   40:  320   28:   34
          31      42:  320   28:   35   26:   34
          32       1:   44   33:   36   35:   40
          33      51:  320   41:  320    1:   26
          34      42:  320   28:   35    1:   25
          35      31:   40   40:  320   28:   34
          36      26:   35   23:   32   35:   42
          37       1:   30   39:  320    1:   27
          38       1:   32   37:  320   35:   40
          39      41:  320   36:   41   27:   34
          40      19:   25   20:   32   35:   42
          41      50:  320   42:  320   27:   34
          42      26:  320    1:   22   35:   42
          43       1:   24   27:   35    1:   28
          44      33:   41   28:   35   26:   34
          45      33:  320    1:   27    1:   25
          46       1:   44   33:   36   41:  320
          47       1:   32    1:   23   29:   34
          48      24:   32   24:   35   29:   34
New grid distribution:   3
           1       1:   33    1:   14   30:   43
           2      52:  320   26:   57   44:   55
           3      96:  320   24:   57   56:  320
           4      38:  320    1:   23   56:  320
           5      77:  151  146:  320  167:  320
           6      38:   95   24:   57   56:  320
           7      34:  320    1:   20   27:   43
           8       1:   47   38:   42    1:   26
           9      31:   47   43:  320    1:   26
          10       1:   22   16:   57   44:   52
          11     152:  320   58:  145   44:  181
          12       1:  151   58:  132   44:  166
          13       1:   25   14:   57   53:  320
          14     152:  320   58:  145  182:  320
          15      50:  320   25:   37    1:   26
          16      23:   37   16:   57   44:   52
          17      67:  320   48:  320    1:   25
          18      34:  320    1:   24    1:   26
          19      38:  320    1:   25   44:   55
          20      21:   33   23:   37    1:   29
          21      26:   37   14:   57   53:  320
          22       1:  151   58:  145  167:  320
          23      52:  320   21:   37   27:   43
          24       1:   47   38:   44   27:   43
          25      30:   47   45:  320   27:   43
          26       1:   17   15:   37   30:   43
          27     152:  236  146:  320   44:  181
          28       1:   63  133:  320   44:  166
          29       1:   29   45:  320   27:   43
          30     236:  320  146:  320  182:  320
          31      48:  320   38:   47    1:   25
          32      34:   49   25:   37    1:   26
          33      64:  320   49:  320   26:   43
          34      48:   63   49:  320   26:   43
          35      64:  151  133:  320   44:  166
          36      38:   51   26:   57   44:   55
          37      48:   66   48:  320    1:   25
          38       1:   76  146:  320  167:  320
          39      48:  320   38:   48   26:   43
          40      34:   51   21:   37   27:   43
          41       1:   30   43:  320    1:   26
          42       1:   33    1:   22    1:   29
          43     237:  320  146:  320   44:  181
          44      18:   33   15:   37   30:   43
          45       1:   37    1:   13   53:  320
          46     152:  235  146:  320  182:  320
          47       1:   20   23:   37    1:   29
          48       1:   37    1:   15   44:   52
Setting up quadratic distribution...
ExtMesh (bp) on 0 =   356 x    81 x   102 =     2941272
PhiOnMesh: Number of (b)points on node 0 =                36400
PhiOnMesh: nlist on node 0 =               117742

        iscf     Eharris(eV)        E_KS(eV)     FreeEng(eV)     dDmax    Ef(eV) dHmax(eV)
   scf:    1    -4324.036839    -4323.985746    -4323.985746  0.055960 -4.729723  1.332490
   scf:    2    -4321.849390    -4323.379373    -4323.379373  0.089538 -5.387550  3.659816
   scf:    3    -4324.194995    -4324.074073    -4324.074073  0.073752 -4.940142  0.204025
   scf:    4    -4324.076177    -4324.075789    -4324.075789  0.004099 -4.966219  0.043584
   scf:    5    -4324.076053    -4324.075951    -4324.075951  0.000857 -4.975410  0.019489
   scf:    6    -4324.076045    -4324.076004    -4324.076004  0.000707 -4.979659  0.005193
   scf:    7    -4324.076016    -4324.076011    -4324.076011  0.000255 -4.980903  0.002282
   scf:    8    -4324.076013    -4324.076012    -4324.076012  0.000121 -4.981192  0.000973
   scf:    9    -4324.076012    -4324.076012    -4324.076012  0.000064 -4.981395  0.000502
   scf:   10    -4324.076012    -4324.076012    -4324.076012  0.000010 -4.981442  0.000246
   scf:   11    -4324.076012    -4324.076012    -4324.076012  0.000007 -4.981472  0.000061

SCF Convergence by DM+H criterion
max |DM_out - DM_in|         :     0.0000073417
max |H_out - H_in|      (eV) :     0.0000609831
SCF cycle converged after 11 iterations

Using DM_out to compute the final energy and forces
No. of atoms with KB's overlaping orbs in proc 0. Max # of overlaps:      23     203

siesta: E_KS(eV) =            -4324.0760

siesta: Atomic forces (eV/Ang):
----------------------------------------
   Tot   -0.051444   -0.046422   -0.021595
----------------------------------------
   Max    0.404964
   Res    0.154137    sqrt( Sum f_i^2 / 3N )
----------------------------------------
   Max    0.404964    constrained

Stress tensor Voigt[x,y,z,yz,xz,xy] (kbar):       -0.03        0.00       -0.00        0.01        0.02       -0.01
(Free)E + p*V (eV/cell)    -4323.3485
Target enthalpy (eV/cell)    -4324.0760

                     ====================================
                        Begin CG opt. move =      4
                     ====================================

outcell: Unit cell vectors (Ang):
       50.000000    0.000000    0.000000
        0.000000   50.000000    0.000000
        0.000000    0.000000   50.000000

outcell: Cell vector modules (Ang)   :   50.000000   50.000000   50.000000
outcell: Cell angles (23,13,12) (deg):     90.0000     90.0000     90.0000
outcell: Cell volume (Ang**3)        : 125000.0000
<dSpData1D:S at geom step 4
  <sparsity:sparsity for geom step 4
    nrows_g=274 nrows=10 sparsity=.0345 nnzs=2588, refcount: 7>
  <dData1D:(new from dSpData1D) n=2588, refcount: 1>
refcount: 1>
new_DM -- step:     5
Re-using DM from previous geometries...
Number of DMs in history: 1
 DM extrapolation coefficients: 
1   1.00000
New DM after history re-use:
<dSpData2D:SpM extrapolated using coords
  <sparsity:sparsity for geom step 4
    nrows_g=274 nrows=10 sparsity=.0345 nnzs=2588, refcount: 9>
  <dData2D:(temp array for extrapolation) n=2588 m=1, refcount: 1>
refcount: 1>
No. of atoms with KB's overlaping orbs in proc 0. Max # of overlaps:      23     203
New grid distribution:   1
           1       1:  320    1:   54    1:   40
           2       1:  320    1:   54   41:   80
           3       1:  320    1:   54   81:  120
           4       1:  320    1:   54  121:  160
           5       1:  320    1:   54  161:  200
           6       1:  320    1:   54  201:  240
           7       1:  320    1:   54  241:  280
           8       1:  320    1:   54  281:  320
           9       1:  320   55:  108    1:   40
          10       1:  320   55:  108   41:   80
          11       1:  320   55:  108   81:  120
          12       1:  320   55:  108  121:  160
          13       1:  320   55:  108  161:  200
          14       1:  320   55:  108  201:  240
          15       1:  320   55:  108  241:  280
          16       1:  320   55:  108  281:  320
          17       1:  320  109:  161    1:   40
          18       1:  320  109:  161   41:   80
          19       1:  320  109:  161   81:  120
          20       1:  320  109:  161  121:  160
          21       1:  320  109:  161  161:  200
          22       1:  320  109:  161  201:  240
          23       1:  320  109:  161  241:  280
          24       1:  320  109:  161  281:  320
          25       1:  320  162:  214    1:   40
          26       1:  320  162:  214   41:   80
          27       1:  320  162:  214   81:  120
          28       1:  320  162:  214  121:  160
          29       1:  320  162:  214  161:  200
          30       1:  320  162:  214  201:  240
          31       1:  320  162:  214  241:  280
          32       1:  320  162:  214  281:  320
          33       1:  320  215:  267    1:   40
          34       1:  320  215:  267   41:   80
          35       1:  320  215:  267   81:  120
          36       1:  320  215:  267  121:  160
          37       1:  320  215:  267  161:  200
          38       1:  320  215:  267  201:  240
          39       1:  320  215:  267  241:  280
          40       1:  320  215:  267  281:  320
          41       1:  320  268:  320    1:   40
          42       1:  320  268:  320   41:   80
          43       1:  320  268:  320   81:  120
          44       1:  320  268:  320  121:  160
          45       1:  320  268:  320  161:  200
          46       1:  320  268:  320  201:  240
          47       1:  320  268:  320  241:  280
          48       1:  320  268:  320  281:  320

InitMesh: MESH =   640 x   640 x   640 =   262144000
InitMesh: (bp) =   320 x   320 x   320 =    32768000
InitMesh: Mesh cutoff (required, used) =   400.000   452.816 Ry
ExtMesh (bp) on 0 =   396 x   130 x   116 =     5971680
New grid distribution:   2
           1      41:  320   36:   40    1:   26
           2       1:   25    1:   19   35:   42
           3      26:  320    1:   19   43:  320
           4       1:   25    1:   18   43:  320
           5      34:  320   20:   32   43:  320
           6      45:  320   33:   40   35:   80
           7      26:   33   20:   32   43:  320
           8       1:   40   36:   38    1:   27
           9      19:   25   19:   32   43:  320
          10      45:   53   41:  320   35:   80
          11      45:  320   33:  128   81:  320
          12      25:   32   27:   35    1:   28
          13       1:   32   37:  320   41:  320
          14       1:   18   19:   32   43:  320
          15       1:   32    1:   26    1:   28
          16       1:   18   20:   32   35:   42
          17      31:   40   39:  320    1:   27
          18      54:  320   41:  320   35:   80
          19      36:  320   23:   32   35:   42
          20      33:   41   28:   35    1:   25
          21      33:   44   37:  320   41:  320
          22      33:  320    1:   27   26:   34
          23      33:   44   37:  320   35:   40
          24       1:   23   24:   35   29:   34
          25      41:   50   41:  320    1:   26
          26      41:   49   42:  320   27:   34
          27      45:  182  129:  320   81:  320
          28       1:   40   36:   39   28:   34
          29     183:  320  129:  320   81:  320
          30       1:   30   40:  320   28:   34
          31      42:  320   28:   35   26:   34
          32       1:   44   33:   36   35:   40
          33      51:  320   41:  320    1:   26
          34      42:  320   28:   35    1:   25
          35      31:   40   40:  320   28:   34
          36      26:   35   23:   32   35:   42
          37       1:   30   39:  320    1:   27
          38       1:   32   37:  320   35:   40
          39      41:  320   36:   41   27:   34
[...]
          15       1:   32    1:   26    1:   28
          16      33:   42   28:   35    1:   24
          17      31:   40   39:  320    1:   27
          18      55:  320   42:  320   35:   80
          19      36:  320   23:   32   35:   42
          20       1:   18   20:   32   35:   42
          21      33:   44   37:  320   41:  320
          22       1:   18   19:   32   43:  320
          23      42:  320   28:   35   25:   34
          24       1:   23   24:   35   29:   34
          25      41:   50   41:  320    1:   26
          26      30:   40   40:  320   28:   34
          27      45:  182  129:  320   81:  320
          28       1:   40   36:   39   28:   34
          29     183:  320  129:  320   81:  320
          30       1:   29   40:  320   28:   34
          31      33:   44   37:  320   35:   40
          32       1:   44   33:   36   35:   40
          33      51:  320   41:  320    1:   26
          34       1:   32   37:  320   35:   40
          35      41:   49   42:  320   27:   34
          36      26:   35   23:   32   35:   42
          37       1:   30   39:  320    1:   27
          38      43:  320   28:   35    1:   24
          39      41:  320   36:   41   27:   34
          40      19:   25   20:   32   35:   42
          41      50:  320   42:  320   27:   34
          42      26:  320    1:   22   35:   42
          43       1:   24   27:   35    1:   28
          44      33:   41   28:   35   25:   34
          45      33:  320    1:   27    1:   24
          46       1:   44   33:   36   41:  320
          47       1:   32    1:   23   29:   34
          48      24:   32   24:   35   29:   34
New grid distribution:   3
           1     151:  320   57:  144  183:  320
           2       1:   22   17:   56   44:   52
           3      38:  320    1:   22   56:  320
           4       1:   37    1:   13   53:  320
           5      98:  320   23:   56   56:  320
           6      38:   97   23:   56   56:  320
           7      35:  320    1:   20   27:   43
           8       1:   48   38:   43    1:   26
           9      65:  320   48:  320   26:   43
          10      52:  320   25:   56   44:   55
          11     151:  320   57:  144   44:  182
          12      22:   34   22:   37    1:   30
          13       1:   24   14:   56   53:  320
          14       1:  150   57:  144  164:  320
          15      51:  320   26:   37    1:   26
          16       1:   34    1:   14   31:   43
          17      68:  320   48:  320    1:   25
          18      38:  320    1:   24   44:   55
          19       1:  150   57:  123   44:  163
          20       1:   48   38:   44   27:   43
          21      35:  320    1:   25    1:   26
          22     151:  235  145:  320  183:  320
          23      53:  320   21:   37   27:   43
          24      23:   37   17:   56   44:   52
          25      32:   48   45:  320   27:   43
          26      38:   51   25:   56   44:   55
          27      63:  150  124:  320   44:  163
          28       1:   62  124:  320   44:  163
          29      25:   37   14:   56   53:  320
          30      76:  150  145:  320  164:  320
          31      49:  320   38:   47    1:   25
          32       1:   37    1:   16   44:   52
          33       1:   29   44:  320    1:   26
          34      49:   64   48:  320   26:   43
          35     236:  320  145:  320   44:  182
          36      35:   52   21:   37   27:   43
          37      30:   48   44:  320    1:   26
          38       1:   75  145:  320  164:  320
          39      49:  320   38:   47   26:   43
          40       1:   17   15:   37   31:   43
          41       1:   31   45:  320   27:   43
          42       1:   34    1:   21    1:   30
          43     151:  235  145:  320   44:  182
          44      18:   34   15:   37   31:   43
          45      49:   67   48:  320    1:   25
          46     236:  320  145:  320  183:  320
          47       1:   21   22:   37    1:   30
          48      35:   50   26:   37    1:   26
Setting up quadratic distribution...
ExtMesh (bp) on 0 =   356 x    81 x   102 =     2941272
PhiOnMesh: Number of (b)points on node 0 =                36400
PhiOnMesh: nlist on node 0 =               125073

        iscf     Eharris(eV)        E_KS(eV)     FreeEng(eV)     dDmax    Ef(eV) dHmax(eV)
   scf:    1    -4324.308574    -4324.306873    -4324.306873  0.000941 -4.764415  0.026945
   scf:    2    -4324.304836    -4324.306249    -4324.306249  0.002682 -4.762130  0.123876
   scf:    3    -4324.307010    -4324.306902    -4324.306902  0.002230 -4.763932  0.000987
   scf:    4    -4324.306902    -4324.306902    -4324.306902  0.000021 -4.763901  0.000374
   scf:    5    -4324.306902    -4324.306902    -4324.306902  0.000014 -4.763890  0.000107
   scf:    6    -4324.306902    -4324.306902    -4324.306902  0.000006 -4.763888  0.000047

SCF Convergence by DM+H criterion
max |DM_out - DM_in|         :     0.0000055633
max |H_out - H_in|      (eV) :     0.0000472706
SCF cycle converged after 6 iterations

Using DM_out to compute the final energy and forces
No. of atoms with KB's overlaping orbs in proc 0. Max # of overlaps:      24     207

siesta: E_KS(eV) =            -4324.3069

siesta: Atomic forces (eV/Ang):
----------------------------------------
   Tot    0.001275   -0.005802   -0.030732
----------------------------------------
   Max    0.015222
   Res    0.004321    sqrt( Sum f_i^2 / 3N )
----------------------------------------
   Max    0.015222    constrained

Stress tensor Voigt[x,y,z,yz,xz,xy] (kbar):       -0.00        0.00        0.00       -0.00        0.00        0.00
(Free)E + p*V (eV/cell)    -4324.3723
Target enthalpy (eV/cell)    -4324.3069

cgvc: Finished line minimization   88.  Mean atomic displacement =    0.0007

                     ====================================
                        Begin CG opt. move =    216
                     ====================================

outcell: Unit cell vectors (Ang):
       50.000000    0.000000    0.000000
        0.000000   50.000000    0.000000
        0.000000    0.000000   50.000000

outcell: Cell vector modules (Ang)   :   50.000000   50.000000   50.000000
outcell: Cell angles (23,13,12) (deg):     90.0000     90.0000     90.0000
outcell: Cell volume (Ang**3)        : 125000.0000
<dSpData1D:S at geom step 216
  <sparsity:sparsity for geom step 216
    nrows_g=274 nrows=10 sparsity=.0346 nnzs=2598, refcount: 7>
  <dData1D:(new from dSpData1D) n=2598, refcount: 1>
refcount: 1>
new_DM -- step:   217
Re-using DM from previous geometries...
Number of DMs in history: 1
 DM extrapolation coefficients: 
1   1.00000
New DM after history re-use:
<dSpData2D:SpM extrapolated using coords
  <sparsity:sparsity for geom step 216
    nrows_g=274 nrows=10 sparsity=.0346 nnzs=2598, refcount: 9>
  <dData2D:(temp array for extrapolation) n=2598 m=1, refcount: 1>
refcount: 1>
No. of atoms with KB's overlaping orbs in proc 0. Max # of overlaps:      24     207
New grid distribution:   1
           1       1:  320    1:   54    1:   40
           2       1:  320    1:   54   41:   80
           3       1:  320    1:   54   81:  120
           4       1:  320    1:   54  121:  160
           5       1:  320    1:   54  161:  200
           6       1:  320    1:   54  201:  240
           7       1:  320    1:   54  241:  280
           8       1:  320    1:   54  281:  320
           9       1:  320   55:  108    1:   40
          10       1:  320   55:  108   41:   80
          11       1:  320   55:  108   81:  120
          12       1:  320   55:  108  121:  160
          13       1:  320   55:  108  161:  200
          14       1:  320   55:  108  201:  240
          15       1:  320   55:  108  241:  280
          16       1:  320   55:  108  281:  320
          17       1:  320  109:  161    1:   40
          18       1:  320  109:  161   41:   80
          19       1:  320  109:  161   81:  120
          20       1:  320  109:  161  121:  160
          21       1:  320  109:  161  161:  200
          22       1:  320  109:  161  201:  240
          23       1:  320  109:  161  241:  280
          24       1:  320  109:  161  281:  320
          25       1:  320  162:  214    1:   40
          26       1:  320  162:  214   41:   80
          27       1:  320  162:  214   81:  120
          28       1:  320  162:  214  121:  160
          29       1:  320  162:  214  161:  200
          30       1:  320  162:  214  201:  240
          31       1:  320  162:  214  241:  280
          32       1:  320  162:  214  281:  320
          33       1:  320  215:  267    1:   40
          34       1:  320  215:  267   41:   80
          35       1:  320  215:  267   81:  120
          36       1:  320  215:  267  121:  160
          37       1:  320  215:  267  161:  200
          38       1:  320  215:  267  201:  240
          39       1:  320  215:  267  241:  280
          40       1:  320  215:  267  281:  320
          41       1:  320  268:  320    1:   40
          42       1:  320  268:  320   41:   80
          43       1:  320  268:  320   81:  120
          44       1:  320  268:  320  121:  160
          45       1:  320  268:  320  161:  200
          46       1:  320  268:  320  201:  240
          47       1:  320  268:  320  241:  280
          48       1:  320  268:  320  281:  320

InitMesh: MESH =   640 x   640 x   640 =   262144000
InitMesh: (bp) =   320 x   320 x   320 =    32768000
InitMesh: Mesh cutoff (required, used) =   400.000   452.816 Ry
ExtMesh (bp) on 0 =   396 x   130 x   116 =     5971680
New grid distribution:   2
           1      41:  320   36:   40    1:   26
           2       1:   25    1:   19   35:   42
           3      26:  320    1:   19   43:  320
           4       1:   25    1:   18   43:  320
           5      34:  320   20:   32   43:  320
           6      45:  320   33:   41   35:   80
           7      26:   33   20:   32   43:  320
           8       1:   40   36:   38    1:   27
           9      19:   25   19:   32   43:  320
          10      45:   54   42:  320   35:   80
          11      45:  320   33:  128   81:  320
          12      25:   32   27:   35    1:   28
          13       1:   32   37:  320   41:  320
          14      33:  320    1:   27   25:   34
          15       1:   32    1:   26    1:   28
          16      33:   42   28:   35    1:   24
          17      31:   40   39:  320    1:   27
          18      55:  320   42:  320   35:   80
          19      36:  320   23:   32   35:   42
          20       1:   18   20:   32   35:   42
          21      33:   44   37:  320   41:  320
          22       1:   18   19:   32   43:  320
          23      42:  320   28:   35   25:   34
          24       1:   23   24:   35   29:   34
          25      41:   50   41:  320    1:   26
          26      30:   40   40:  320   28:   34
          27      45:  182  129:  320   81:  320
          28       1:   40   36:   39   28:   34
          29     183:  320  129:  320   81:  320
          30       1:   29   40:  320   28:   34
          31      33:   44   37:  320   35:   40
          32       1:   44   33:   36   35:   40
          33      51:  320   41:  320    1:   26
          34       1:   32   37:  320   35:   40
          35      41:   49   42:  320   27:   34
          36      26:   35   23:   32   35:   42
          37       1:   30   39:  320    1:   27
          38      43:  320   28:   35    1:   24
          39      41:  320   36:   41   27:   34
          40      19:   25   20:   32   35:   42
          41      50:  320   42:  320   27:   34
          42      26:  320    1:   22   35:   42
          43       1:   24   27:   35    1:   28
          44      33:   41   28:   35   25:   34
          45      33:  320    1:   27    1:   24
          46       1:   44   33:   36   41:  320
          47       1:   32    1:   23   29:   34
          48      24:   32   24:   35   29:   34
New grid distribution:   3
           1     151:  320   57:  144  183:  320
           2       1:   22   17:   56   44:   52
           3      38:  320    1:   22   56:  320
           4       1:   37    1:   13   53:  320
           5      98:  320   23:   56   56:  320
           6      38:   97   23:   56   56:  320
           7      35:  320    1:   20   27:   43
           8       1:   48   38:   43    1:   26
           9      65:  320   48:  320   26:   43
          10      52:  320   25:   56   44:   55
          11     151:  320   57:  144   44:  182
          12      22:   34   22:   37    1:   30
          13       1:   24   14:   56   53:  320
          14       1:  150   57:  144  164:  320
          15      51:  320   26:   37    1:   26
          16       1:   34    1:   14   31:   43
          17      68:  320   48:  320    1:   25
          18      38:  320    1:   24   44:   55
          19       1:  150   57:  123   44:  163
          20       1:   48   38:   44   27:   43
          21      35:  320    1:   25    1:   26
          22     151:  235  145:  320  183:  320
          23      53:  320   21:   37   27:   43
          24      23:   37   17:   56   44:   52
          25      32:   48   45:  320   27:   43
          26      38:   51   25:   56   44:   55
          27      63:  150  124:  320   44:  163
          28       1:   62  124:  320   44:  163
          29      25:   37   14:   56   53:  320
          30      76:  150  145:  320  164:  320
          31      49:  320   38:   47    1:   25
          32       1:   37    1:   16   44:   52
          33       1:   29   44:  320    1:   26
          34      49:   64   48:  320   26:   43
          35     236:  320  145:  320   44:  182
          36      35:   52   21:   37   27:   43
          37      30:   48   44:  320    1:   26
          38       1:   75  145:  320  164:  320
          39      49:  320   38:   47   26:   43
          40       1:   17   15:   37   31:   43
          41       1:   31   45:  320   27:   43
          42       1:   34    1:   21    1:   30
          43     151:  235  145:  320   44:  182
          44      18:   34   15:   37   31:   43
          45      49:   67   48:  320    1:   25
          46     236:  320  145:  320  183:  320
          47       1:   21   22:   37    1:   30
          48      35:   50   26:   37    1:   26
Setting up quadratic distribution...
ExtMesh (bp) on 0 =   356 x    81 x   102 =     2941272
PhiOnMesh: Number of (b)points on node 0 =                36400
PhiOnMesh: nlist on node 0 =               125082

        iscf     Eharris(eV)        E_KS(eV)     FreeEng(eV)     dDmax    Ef(eV) dHmax(eV)
   scf:    1    -4324.301957    -4324.306895    -4324.306895  0.000725 -4.766218  0.019335
   scf:    2    -4324.305232    -4324.306387    -4324.306387  0.001982 -4.765719  0.080575
   scf:    3    -4324.307006    -4324.306921    -4324.306921  0.001652 -4.766292  0.001538
   scf:    4    -4324.306921    -4324.306921    -4324.306921  0.000029 -4.766374  0.000359
   scf:    5    -4324.306921    -4324.306921    -4324.306921  0.000011 -4.766406  0.000112
   scf:    6    -4324.306921    -4324.306921    -4324.306921  0.000008 -4.766412  0.000040

SCF Convergence by DM+H criterion
max |DM_out - DM_in|         :     0.0000080785
max |H_out - H_in|      (eV) :     0.0000398153
SCF cycle converged after 6 iterations

Using DM_out to compute the final energy and forces
No. of atoms with KB's overlaping orbs in proc 0. Max # of overlaps:      24     207

siesta: E_KS(eV) =            -4324.3069

siesta: Atomic forces (eV/Ang):
----------------------------------------
   Tot   -0.000413   -0.006348   -0.030624
----------------------------------------
   Max    0.009589
   Res    0.003463    sqrt( Sum f_i^2 / 3N )
----------------------------------------
   Max    0.009589    constrained

Stress tensor Voigt[x,y,z,yz,xz,xy] (kbar):       -0.00        0.00        0.00       -0.00        0.00        0.00
(Free)E + p*V (eV/cell)    -4324.3600
Target enthalpy (eV/cell)    -4324.3069

outcoor: Relaxed atomic coordinates (Ang):                  
    2.80369404    5.96989079    4.27726166   3       1  N
    5.68998806    4.46223078    2.64487196   3       2  N
    5.71990247    5.36333597    5.01013428   1       3  C
    4.53013179    4.56589209    5.48403320   1       4  C
    6.29835792    5.29862566    3.70634876   1       5  C
    3.16415184    4.85880486    5.18907960   1       6  C
    6.19219528    4.52025189    1.50757775   4       7  O
    1.59955150    6.11653605    3.99952804   4       8  O
    4.71740478    3.74781000    2.95742141   4       9  O
    3.72519530    6.69243976    3.84897486   4      10  O
    6.38179253    6.18197673    5.96744789   1      11  C
    4.77718244    3.48836820    6.38042294   1      12  C
    7.46111373    6.02684773    3.36094248   1      13  C
    2.09725087    4.10777640    5.73634216   1      14  C
    3.71821332    2.72794342    6.93526209   1      15  C
    7.54869537    6.91420744    5.63595796   1      16  C
    2.37294435    3.03505981    6.61405838   1      17  C
    8.09223712    6.83971120    4.32956326   1      18  C
    5.95484769    6.25160501    6.98801902   2      19  H
    5.82810296    3.23964001    6.63017367   2      20  H
    7.83738562    5.92626067    2.32453163   2      21  H
    1.06827105    4.39852228    5.44872040   2      22  H
    3.94943899    1.89072379    7.62431441   2      23  H
    8.03476331    7.54578311    6.40689897   2      24  H
    1.54126984    2.44487972    7.04695045   2      25  H
    9.00484832    7.40966150    4.06551159   2      26  H

siesta: Program's energy decomposition (eV):
siesta: Ebs     =     -1206.524635
siesta: Eions   =      5827.588666
siesta: Ena     =       667.378817
siesta: Ekin    =      2996.030973
siesta: Enl     =      -882.575881
siesta: Eso     =         0.000000
siesta: Edftu   =         0.000000
siesta: DEna    =       -49.201350
siesta: DUscf   =         8.013959
siesta: DUext   =         0.000000
siesta: Exc     =     -1236.364773
siesta: eta*DQ  =         0.000000
siesta: Emadel  =         0.000000
siesta: Emeta   =         0.000000
siesta: Emolmec =         0.000000
siesta: Ekinion =         0.000000
siesta: Eharris =     -4324.306921
siesta: Etot    =     -4324.306921
siesta: FreeEng =     -4324.306921

siesta: Final energy (eV):
siesta:  Band Struct. =   -1206.524635
siesta:       Kinetic =    2996.030973
siesta:       Hartree =   17715.099146
siesta:       Edftu   =       0.000000
siesta:       Eso     =       0.000000
siesta:    Ext. field =       0.000000
siesta:   Exch.-corr. =   -1236.364773
siesta:  Ion-electron =  -38121.276245
siesta:       Ion-ion =   14322.203978
siesta:       Ekinion =       0.000000
siesta:         Total =   -4324.306921
siesta:         Fermi =      -4.766412

siesta: Stress tensor (static) (eV/Ang**3):
siesta:    -0.000001    0.000000    0.000000
siesta:     0.000000    0.000001   -0.000000
siesta:     0.000000   -0.000000    0.000001

siesta: Cell volume =     125000.000000 Ang**3

siesta: Pressure (static):
siesta:                Solid            Molecule  Units
siesta:          -0.00000000         -0.00000000  Ry/Bohr**3
siesta:          -0.00000042         -0.00000041  eV/Ang**3
siesta:          -0.00067998         -0.00064889  kBar
(Free)E+ p_basis*V_orbitals  =       -4316.108669
(Free)Eharris+ p_basis*V_orbitals  =       -4316.108669

siesta: Electric dipole (a.u.)  =    0.893007   -0.253072    1.818013
siesta: Electric dipole (Debye) =    2.269799   -0.643245    4.620930

cite: Please see "dbdt.bib" for an exhaustive BiBTeX file.
cite: Please clearly indicate Siesta version in published work: 4.1.5
cite: This calculation has made use of the following articles
cite: which are encouraged to be cited in a published work.
        Primary SIESTA paper
          DOI: www.doi.org/10.1088/0953-8984/14/11/302
 
>> End of run:   3-AUG-2021  17:50:29
Job completed
Job completed
