SystemName           # default value
SystemLabel     rot_dppp_0_0                                                                    
MPI.Nprocs.SIESTA        24     # default value
SpinPolarized              F     # default value
NonCollinearSpin              F     # default value
SpinOrbit              F     # default value
#:block? SpinPolarized              F
#:defined? SpinPolarized              F
#:block? NonCollinearSpin              F
#:defined? NonCollinearSpin              F
#:block? SpinOrbit              F
#:defined? SpinOrbit              F
Spin     none                                 # default value
TimeReversalSymmetry              T     # default value
DebugObjects.Node         0     # default value
DebugObjects              F     # default value
XML.Write              F     # default value
timer_report_threshold          0.000000000         # default value
UseParallelTimer              T     # default value
UseTreeTimer              F     # default value
alloc_report_level         0     # default value
alloc_report_threshold          0.000000000         # default value
xc.functional     GGA                                                                             
xc.authors     PBE                                                                             
MM.Cutoff          30.00000000     Bohr     # default value
MM.UnitsEnergy     eV     # default value
MM.UnitsDistance     Ang     # default value
WriteIonPlotFiles              F     # default value
Atom.Debug.KB.Generation              F     # default value
KB.New.Reference.Orbitals              F     # default value
user-basis              F     # default value
user-basis-netcdf              F     # default value
#:block? DFTU.proj              F
#:defined? DFTU.proj              F
#:block? LDAU.proj              F
#:defined? LDAU.proj              F
Number_of_species              2
%block Chemical_species_label
  1 1 H
  2 6 C
%endblock Chemical_species_label
ReparametrizePseudos              F     # default value
Restricted.Radial.Grid              T     # default value
Rmax.Radial.Grid          0.000000000         # default value
PAO.BasisSize     DZP                                                                             
PAO.BasisType     split          # default value
PAO.SoftDefault              F     # default value
PAO.SoftInnerRadius         0.9000000000         # default value
PAO.SoftPotential          40.00000000         # default value
PAO.SplitNorm         0.1500000000         # default value
PAO.SplitNormH         -1.000000000         # default value
LDAU.ProjectorGenerationMethod         2     # default value
DFTU.ProjectorGenerationMethod         2     # default value
LDAU.EnergyShift         0.5000000000E-01 Ry     # default value
DFTU.EnergyShift         0.5000000000E-01 Ry     # default value
LDAU.CutoffNorm         0.9000000000         # default value
DFTU.CutoffNorm         0.9000000000         # default value
PAO.SoftDefault              F     # default value
PAO.SoftInnerRadius         0.9000000000         # default value
PAO.SoftPotential          40.00000000         # default value
LDAU.ThresholdTol         0.1000000000E-01     # default value
DFTU.ThresholdTol         0.1000000000E-01     # default value
LDAU.PopTol         0.1000000000E-02     # default value
DFTU.PopTol         0.1000000000E-02     # default value
LDAU.PotentialShift              F     # default value
DFTU.PotentialShift              F     # default value
LDAU.FirstIteration              F     # default value
DFTU.FirstIteration              F     # default value
FilterCutoff          0.000000000     Ry     # default value
FilterTol          0.000000000     Ry     # default value
KB.Rmax          6.000000000     Bohr     # default value
PAO.EnergyShift         0.1000000000E-01         Ry
# above item originally: PAO.EnergyShift         0.1000000000E-01 Ry        
PAO.SplitTailNorm              F     # default value
PAO.FixSplitTable              F     # default value
PAO.NewSplitCode              F     # default value
PAO.Filter              F     # default value
PAO.Keep.Findp.Bug              F     # default value
PAO.Filter              F     # default value
PAO.OldStylePolorbs              T     # default value
PAO.SplitTailNorm              F     # default value
PAO.FixSplitTable              F     # default value
PAO.NewSplitCode              F     # default value
PAO.Filter              F     # default value
Vna.Filter              F     # default value
FilterCutoff          0.000000000     Ry     # default value
FilterTol          0.000000000     Ry     # default value
KB.Rmax          6.000000000     Bohr     # default value
PAO.EnergyShift         0.1000000000E-01         Ry
# above item originally: PAO.EnergyShift         0.1000000000E-01 Ry        
PAO.SplitTailNorm              F     # default value
PAO.FixSplitTable              F     # default value
PAO.NewSplitCode              F     # default value
PAO.Filter              F     # default value
PAO.Filter              F     # default value
PAO.Filter              F     # default value
PAO.Filter              F     # default value
PAO.OldStylePolorbs              T     # default value
PAO.SplitTailNorm              F     # default value
PAO.FixSplitTable              F     # default value
PAO.NewSplitCode              F     # default value
PAO.Filter              F     # default value
Vna.Filter              F     # default value
PAO.BasisType     split          # default value
Atom-Setup-Only              F     # default value
UseStructFile              F     # default value
MD.UseStructFile              F     # default value
LatticeConstant          1.889726878           Bohr
# above item originally: LatticeConstant          1.000000000     Ang       
#:block? LatticeParameters              F
#:block? LatticeVectors              T
%block LatticeVectors
  47.46660458 0.00000000 0.00000000
  0.00000000 8.68988381 0.00000000
  0.00000000 0.00000000 19.99999059
%endblock LatticeVectors
AtomicCoordinatesFormat     Ang                                                                             
NumberOfAtoms            140
ZM.UnitsLength     Bohr           # default value
ZM.UnitsAngle     rad            # default value
ZM.ForceTolLength         0.1555740000E-02 Ry/Bohr     # default value
ZM.ForceTolAngle         0.3565490000E-02 Ry/rad     # default value
ZM.MaxDisplLength         0.2000000000     Bohr     # default value
ZM.MaxDisplAngle         0.3000000000E-02 rad     # default value
ZM.CalcAllForces              F     # default value
%block AtomicCoordinatesAndAtomicSpecies
  11.19906560  5.82574794 11.09946859 1 #   1: H
   6.01819587  2.48148408 11.45995404 1 #   2: H
   4.39073447  3.38305347 11.32392202 1 #   3: H
   4.39926621  5.24526869 11.27462893 1 #   4: H
   6.08487385  6.17541224 11.10230076 1 #   5: H
  42.51713561  5.24584147 11.29300015 1 #   6: H
  42.52607932  3.38340536 11.24870905 1 #   7: H
  40.89994837  2.48349416 11.11869880 1 #   8: H
  40.83158422  6.17663468 11.46531577 1 #   9: H
   8.20252394  7.42689525 11.07118365 1 #  10: H
  15.65652526  3.50174396 11.39132153 1 #  11: H
  29.75032663  4.48849923 11.09706103 1 #  12: H
  17.16159521  4.48907668 11.48630182 1 #  13: H
  11.98385764  1.14635525 11.15764138 1 #  14: H
  13.55512023  2.15986740 11.46134579 1 #  15: H
  14.98270259  8.23084229 11.03610056 1 #  16: H
   7.51993043  3.46955306 11.34215156 1 #  17: H
  13.29708885  7.18107637 11.10006428 1 #  18: H
   9.61924672  4.81631020 11.40734706 1 #  19: H
   9.88636349 -0.21181932 11.15862519 1 #  20: H
  31.92715225  8.22946182 11.56600239 1 #  21: H
  35.71624670  5.83238404 11.47432273 1 #  22: H
  31.25683638  3.50567976 11.15062287 1 #  23: H
  33.36368235  2.16615770 11.09395208 1 #  24: H
  39.40421562  3.46786364 11.20871214 1 #  25: H
  34.93125230  1.15096797 11.40284375 1 #  26: H
  33.61916312  7.18156796 11.46162219 1 #  27: H
  37.30196334  4.81768425 11.15992575 1 #  28: H
  29.80824637  0.78890558 11.52868140 1 #  29: H
  28.12902124  1.71932091 11.30229793 1 #  30: H
  28.12144506  3.58225375 11.24142408 1 #  31: H
  18.78874692  3.58271364 11.33661414 1 #  32: H
  18.78162420  1.71957427 11.27928573 1 #  33: H
  17.10123241  0.79058560 11.06988020 1 #  34: H
  37.02509526 -0.20551381 11.38300466 1 #  35: H
  38.71458429  7.42881027 11.49995437 1 #  36: H
  45.94081942  5.76255901 11.28222915 2 #  37: C
  45.93642797  7.20984307 11.28313264 2 #  38: C
  47.19164394  7.93755804 11.28397123 2 #  39: C
  47.19151516  5.03360738 11.28389370 2 #  40: C
  47.19159383  3.59149788 11.28365403 2 #  41: C
   0.97574653  5.76225493 11.28590513 2 #  42: C
   0.98028921  7.20961211 11.28502201 2 #  43: C
   3.44183667  5.79366324 11.27460398 2 #  44: C
   3.48391148  7.20494781 11.26542668 2 #  45: C
   2.22958471  7.93339085 11.28484238 2 #  46: C
   2.22918966  5.04719517 11.28996122 2 #  47: C
   2.22624059  3.57864981 11.30459836 2 #  48: C
   4.76671505  7.94114040 11.24778807 2 #  49: C
   6.03672838  7.27937504 11.17522748 2 #  50: C
   7.25022800  7.98668565 11.16903029 2 #  51: C
  40.88004936  7.28063847 11.39372373 2 #  52: C
  39.66686353  7.98854160 11.40175993 2 #  53: C
  42.15026318  7.94190219 11.32138536 2 #  54: C
  43.47461150  5.79404250 11.29356098 2 #  55: C
  43.43289344  7.20533385 11.30325139 2 #  56: C
  44.68730747  7.93372395 11.28390822 2 #  57: C
  44.68746381  5.04765083 11.27847040 2 #  58: C
  44.69054200  3.57913513 11.26430512 2 #  59: C
  45.93819591  1.41496788 11.27337233 2 #  60: C
  45.94229356  2.86250371 11.27191110 2 #  61: C
  47.19170468  0.68648374 11.28393830 2 #  62: C
   0.97434361  2.86223801 11.29590071 2 #  63: C
   0.97874767  1.41468663 11.29470986 2 #  64: C
   3.47681645  1.42130505 11.31963104 2 #  65: C
   3.43597137  2.83150457 11.32040457 2 #  66: C
   2.22706902  0.69010728 11.29974617 2 #  67: C
   4.76293120  0.68998606 11.30609829 2 #  68: C
   6.01081010  1.38247098 11.33944625 2 #  69: C
   7.26222375  0.72647042 11.25921837 2 #  70: C
  40.90694094  1.38400800 11.23486624 2 #  71: C
  39.65544872  0.72861342 11.31499059 2 #  72: C
  42.15434720  0.69075008 11.26509870 2 #  73: C
  43.48086927  2.83197498 11.25017121 2 #  74: C
  43.44048066  1.42180396 11.25039275 2 #  75: C
  44.69003496  0.69042155 11.26895390 2 #  76: C
  22.20045387  8.44460235 11.28915195 2 #  77: C
  22.20167662  5.54952103 11.29941509 2 #  78: C
  23.45505096  6.27781705 11.28669429 2 #  79: C
  23.45510571  7.71650762 11.28774186 2 #  80: C
  24.70994857  8.44446845 11.28725828 2 #  81: C
  24.70854725  5.54945812 11.27314024 2 #  82: C
  27.21285370  8.44959470 11.31423607 2 #  83: C
  27.20711739  5.54356225 11.24608894 2 #  84: C
  25.95899814  7.72067236 11.28844037 2 #  85: C
  25.95689432  6.27412902 11.26877250 2 #  86: C
  28.49295142  6.27590616 11.26660512 2 #  87: C
  28.49527956  7.71385289 11.33913488 2 #  88: C
  29.76337694  8.37621818 11.43576742 2 #  89: C
  29.74213979  5.58581641 11.23195866 2 #  90: C
  35.95771169  3.08755144 11.29016343 2 #  91: C
  37.23805084  3.71072201 11.20264528 2 #  92: C
  17.14705119  8.37749506 11.15710572 2 #  93: C
  17.16944133  5.58646731 11.35247036 2 #  94: C
  15.93325167  7.67134474 11.14958076 2 #  95: C
  15.91922359  6.24281063 11.25747996 2 #  96: C
  18.41805234  6.27660637 11.31418136 2 #  97: C
  18.41536442  7.71464240 11.24489338 2 #  98: C
  19.69795023  8.44990335 11.26593273 2 #  99: C
  19.70362944  5.54390579 11.32933729 2 # 100: C
  20.95170141  7.72080376 11.28844107 2 # 101: C
  20.95371666  6.27431330 11.30571074 2 # 102: C
   8.53141920  1.51758234 11.26458710 2 # 103: C
   8.49626668  2.94400837 11.34582564 2 # 104: C
   9.68200126  3.70884984 11.37549204 2 # 105: C
   9.81371471  0.89467793 11.18749088 2 # 106: C
  11.00124303  1.66076048 11.19191666 2 # 107: C
  10.96053895  3.08293124 11.29580519 2 # 108: C
  12.21795232  3.89178335 11.29467218 2 # 109: C
  12.18034984  5.31114017 11.15887335 2 # 110: C
  13.36875408  6.07556713 11.15448226 2 # 111: C
  13.49455072  3.26647440 11.40444111 2 # 112: C
  14.68136142  4.02897908 11.37243287 2 # 113: C
  14.64915811  5.45344602 11.26227836 2 # 114: C
  35.91439787  1.66527561 11.38265872 2 # 115: C
  32.26356774  5.45366274 11.32735227 2 # 116: C
  34.73546139  5.31543007 11.42547713 2 # 117: C
  34.69935881  3.89601474 11.29435414 2 # 118: C
  33.42281870  3.27164488 11.17003059 2 # 119: C
  32.23195610  4.03214538 11.19757349 2 # 120: C
  38.38682744  1.52098363 11.31358603 2 # 121: C
  37.10088565  0.90074662 11.37882242 2 # 122: C
  33.54648975  6.07575330 11.42591322 2 # 123: C
  30.97725225  7.67020298 11.44591416 2 # 124: C
  30.99231641  6.24189629 11.33230388 2 # 125: C
  38.42592833  2.94525792 11.22515226 2 # 126: C
  22.20574983  4.10209182 11.30102705 2 # 127: C
  23.45488345  3.37278337 11.28630713 2 # 128: C
  23.45498496  1.93079178 11.28736335 2 # 129: C
  24.70418976  4.10194665 11.27114507 2 # 130: C
  27.16629138  4.13335587 11.24426432 2 # 131: C
  25.95632283  3.38585956 11.26160994 2 # 132: C
  25.95893447  1.91708663 11.28088384 2 # 133: C
  19.74393127  4.13368756 11.33092342 2 # 134: C
  20.95380503  3.38608352 11.31203751 2 # 135: C
  20.95148589  1.91735063 11.29549622 2 # 136: C
  22.20460600  1.20202244 11.29032525 2 # 137: C
  24.70553551  1.20193020 11.28570812 2 # 138: C
  27.17152815  1.17093457 11.30160780 2 # 139: C
  19.73900562  1.17116706 11.27812558 2 # 140: C
%endblock AtomicCoordinatesAndAtomicSpecies
MD.UseSaveXV              F     # default value
MD.UseSaveZM              F     # default value
WriteCoorInitial              T     # default value
MD.TypeOfRun     none     # default value
MD.TypeOfRun     none     # default value
MaxBondDistance          6.000000000     Bohr     # default value
Output-Structure-Only              F     # default value
WriteCoorXmol              F     # default value
#:physical? MaxWalltime              F
MaxWalltime         0.1797693135+309     # default value
#:physical? MaxWalltime.Slack              F
MaxWalltime.Slack          5.000000000         # default value
HSetupOnly              F     # default value
LongOutput              F     # default value
WriteDenchar              F     # default value
WriteMullikenPop         0     # default value
WriteOrbMom              F     # default value
WriteHirshfeldPop              F     # default value
WriteVoronoiPop              F     # default value
PartialChargesAtEveryGeometry              F     # default value
PartialChargesAtEveryScfStep              F     # default value
Compat.Matel.NRTAB              F     # default value
MeshCutoff          400.0000000             Ry
# above item originally: MeshCutoff          400.0000000     Ry        
NetCharge          0.000000000         # default value
MinSCFIterations         0     # default value
MaxSCFIterations            500
SCF.MustConverge              T     # default value
#:block? TS.MixH              F
#:defined? TS.MixH              F
#:block? MixHamiltonian              F
#:defined? MixHamiltonian              F
#:block? MixCharge              F
#:defined? MixCharge              F
TS.MixH              T     # default value
MixHamiltonian              T     # default value
MixCharge              F     # default value
SCF.Mix     Hamiltonian     # default value
Compat-pre-v4-DM-H              F     # default value
SCF.MixAfterConvergence              F     # default value
SCF.Recompute-H-After-Scf              F     # default value
DM.NumberPulay              5
DM.NumberBroyden         0     # default value
DM.FIRE.Mixing              F     # default value
DM.MixSCF1              T     # default value
SCF.Mix.First              T     # default value
SCF.Mix.First.Force              F     # default value
DM.PulayOnFile              F     # default value
DM.MixingWeight         0.2500000000    
DM.OccupancyTolerance         0.1000000000E-11     # default value
DM.NumberKick         0     # default value
DM.KickMixingWeight         0.5000000000         # default value
DM.RequireHarrisConvergence              F     # default value
SCF.Harris.Converge              F     # default value
DM.HarrisTolerance         0.7349806700E-05 Ry     # default value
SCF.Harris.Tolerance         0.7349806700E-05 Ry     # default value
SCF.DM.Converge              T     # default value
DM.Tolerance         0.1000000000E-03     # default value
SCF.DM.Tolerance         0.1000000000E-03     # default value
SCF.EDM.Converge              F     # default value
SCF.EDM.Tolerance         0.7349806700E-04 Ry     # default value
SCF.H.Converge              T
SCF.H.Tolerance         0.7349798845E-05         Ry
# above item originally: SCF.H.Tolerance         0.1000000000E-03 eV        
DM.RequireEnergyConvergence              F     # default value
SCF.FreeE.Converge              F     # default value
DM.EnergyTolerance         0.7349806700E-05 Ry     # default value
SCF.FreeE.Tolerance         0.7349806700E-05 Ry     # default value
MonitorForcesInSCF              F     # default value
SCF.MonitorForces              F     # default value
UseSaveData              F     # default value
DM.UseSaveDM              T
NeglNonOverlapInt              F     # default value
SolutionMethod     diagon     # default value
ElectronicTemperature         0.1900000000E-02 Ry     # default value
FixSpin              F     # default value
Spin.Fix              F     # default value
ON.MaxNumIter      1000     # default value
ON.etol         0.1000000000E-07     # default value
ON.eta          0.000000000     Ry     # default value
ON.eta_alpha          0.000000000     Ry     # default value
ON.eta_beta          0.000000000     Ry     # default value
On.RcLWF          9.500000000     Bohr     # default value
ON.UseSaveLWF              F     # default value
ON.functional     kim     # default value
ON.ChemicalPotentialUse              F     # default value
ON.ChemicalPotential              F     # default value
ON.ChemicalPotentialRc          9.500000000     Bohr     # default value
ON.ChemicalPotentialTemperature         0.5000000000E-01 Ry     # default value
ON.ChemicalPotentialOrder       100     # default value
MD.VariableCell              F     # default value
compat-pre-v4-dynamics              F     # default value
MD.TypeOfRun     cg     # default value
MD.UseSaveCG              F     # default value
Optim.Broyden              F     # default value
#:block? Optim.Broyden              F
#:defined? Optim.Broyden              F
MD.NumCGsteps         0     # default value
MD.Steps         0     # default value
MD.MaxCGDispl         0.2000000000     Bohr     # default value
MD.MaxDispl         0.2000000000     Bohr     # default value
MD.MaxForceTol         0.1555740000E-02 Ry/Bohr     # default value
MD.MaxStressTol         0.6797730000E-04 Ry/Bohr**3     # default value
GeometryMustConverge              F     # default value
MD.InitialTimeStep         1     # default value
#:block? MD.Steps              F
#:defined? MD.Steps              F
MD.FinalTimeStep         1     # default value
MD.LengthTimeStep          1.000000000     fs     # default value
MD.Quench              F     # default value
MD.FireQuench              F     # default value
MD.InitialTemperature          0.000000000     K     # default value
MD.TargetTemperature          0.000000000     K     # default value
MD.TargetPressure          0.000000000     Ry/Bohr**3     # default value
MD.NoseMass          100.0000000     Ry*fs**2     # default value
MD.ParrinelloRahmanMass          100.0000000     Ry*fs**2     # default value
MD.AnnealOption     TemperatureAndPressure     # default value
MD.TauRelax          100.0000000     fs     # default value
MD.BulkModulus         0.6797730000E-02 Ry/Bohr**3     # default value
MD.FCDispl         0.4000000000E-01 Bohr     # default value
MD.FCfirst         1     # default value
MD.FClast       140     # default value
UseSpatialDecomposition              F     # default value
UseDomainDecomposition              F     # default value
SCF.Mix.Spin     all     # default value
Mixer.Debug              F     # default value
Mixer.Debug.MPI              F     # default value
DM.NumberPulay              5
DM.NumberBroyden         0     # default value
DM.MixingWeight         0.2500000000    
DM.NumberKick         0     # default value
DM.KickMixingWeight         0.5000000000         # default value
SCF.LinearMixingAfterPulay              F     # default value
SCF.MixingWeightAfterPulay         0.2500000000         # default value
SCF.Mixer.History         5     # default value
SCF.Mixer.Weight         0.2500000000         # default value
SCF.Mixer.Kick         0     # default value
SCF.Mixer.Kick.Weight         0.5000000000         # default value
SCF.Mixer.Restart         0     # default value
SCF.Mixer.Restart.Save         1     # default value
SCF.Mixer.Method     Pulay     # default value
SCF.Mixer.Variant     original     # default value
SCF.Mixer.Linear.After        -1     # default value
SCF.Mixer.Linear.After.Weight         0.2500000000         # default value
#:block? ChargeGeometries              F
#:defined? ChargeGeometries              F
#:block? ChargeGeometries              F
#:defined? ChargeGeometries              F
Harris_functional              F     # default value
ForceAuxCell              F     # default value
#:block? Optim.Broyden.History.Steps              F
#:defined? Optim.Broyden.History.Steps              F
#:block? Optim.Broyden.Cycle.On.Maxit              F
#:defined? Optim.Broyden.Cycle.On.Maxit              F
#:block? Optim.Broyden.Variable.Weight              F
#:defined? Optim.Broyden.Variable.Weight              F
#:block? Optim.Broyden.Debug              F
#:defined? Optim.Broyden.Debug              F
#:block? Optim.Broyden.Initial.Inverse.Jacobian              F
#:defined? Optim.Broyden.Initial.Inverse.Jacobian              F
WriteKpoints              F     # default value
WriteForces              F     # default value
WriteDM              T     # default value
WriteDM.End.Of.Cycle              T     # default value
WriteH              F     # default value
WriteH.End.Of.Cycle              F     # default value
WriteDM.NetCDF              F     # default value
WriteDM.History.NetCDF              F     # default value
WriteDMHS.NetCDF              F     # default value
WriteDMHS.History.NetCDF              F     # default value
SCF.Read.Charge.NetCDF              F     # default value
SCF.Read.Deformation.Charge.NetCDF              F     # default value
Write.TSHS.History              F     # default value
SaveInitialChargeDensity              F     # default value
AnalyzeChargeDensityOnly              F     # default value
UseNewDiagk              F     # default value
Diag.WFS.Cache     none     # default value
WriteBands              F     # default value
WriteKbands              F     # default value
WriteEigenvalues              F     # default value
WriteCoorStep              F     # default value
WriteMDhistory              F     # default value
WriteMDXmol              T     # default value
WriteOrbitalIndex              T     # default value
Write.Graphviz     none     # default value
WriteCoorStep              F     # default value
SaveHS              F     # default value
ReInitialiseDM              T     # default value
DM.AllowReuse              T     # default value
DM.AllowExtrapolation              T     # default value
DM.History.Depth         1     # default value
DM.NormalizationTolerance         0.1000000000E-04     # default value
DM.NormalizeDuringSCF              T     # default value
MullikenInSCF              F     # default value
SpinInSCF              F     # default value
WarningMinimumAtomicDistance          1.000000000     Bohr     # default value
BornCharge              F     # default value
ChangeKgridInMD              F     # default value
MD.RelaxCellOnly              F     # default value
MD.RemoveIntraMolecularPressure              F     # default value
COOP.Write              F     # default value
SaveRho              F     # default value
SaveDeltaRho              F     # default value
SaveRhoXC              F     # default value
SaveElectrostaticPotential              F     # default value
SaveNeutralAtomPotential              F     # default value
SaveTotalPotential              F     # default value
SaveIonicCharge              F     # default value
SaveBaderCharge              F     # default value
SaveTotalCharge              F     # default value
Siesta2Wannier90.WriteMmn              F     # default value
Siesta2Wannier90.WriteUnk              F     # default value
Siesta2Wannier90.WriteAmn              F     # default value
Siesta2Wannier90.WriteEig              F     # default value
#:block? Siesta2Wannier90.NumberOfBandsUp              F
#:defined? Siesta2Wannier90.NumberOfBandsUp              F
#:block? Siesta2Wannier90.NumberOfBandsDown              F
#:defined? Siesta2Wannier90.NumberOfBandsDown              F
#:block? Siesta2Wannier90.NumberOfBands              F
#:defined? Siesta2Wannier90.NumberOfBands              F
Siesta2Wannier90.NumberOfBandsUp         0     # default value
Siesta2Wannier90.NumberOfBandsDown         0     # default value
Siesta2Wannier90.NumberOfBands         0     # default value
CDF.Save              F     # default value
CDF.Compress         0     # default value
CDF.MPI              F     # default value
CDF.Read.Parallel              F     # default value
DM.AllowReuse              T     # default value
DM.AllowExtrapolation              T     # default value
DM.AllowExtrapolation              F     # default value
NumberOfEigenStates      1532     # default value
RcSpatial          0.000000000     Bohr     # default value
ProcessorGridX         1     # default value
ProcessorGridY         1     # default value
ProcessorGridZ         1     # default value
processorY         4     # default value
blocksize        24     # default value
#:block? SpinSpiral              F
#:defined? SpinSpiral              F
TimeReversalSymmetryForKpoints              T     # default value
%block kgrid_Monkhorst_Pack
   15 0 0
   0 51 0 0
   0 0 1 0
%endblock kgrid_Monkhorst_Pack
Diag.ParallelOverK              F     # default value
Diag.ProcessorY         4     # default value
Diag.BlockSize        24     # default value
Diag.Use2D              T     # default value
Diag.UpperLower     lower     # default value
Diag.DivideAndConquer              T     # default value
Diag.NoExpert              F     # default value
Diag.Algorithm     Divide-and-Conquer     # default value
Diag.AbsTol         0.1000000000E-15     # default value
Diag.OrFac         0.1000000000E-05     # default value
Diag.Memory          1.000000000         # default value
#:block? ProjectedDensityOfStates              F
#:block? BandLines              T
#:defined? BandLines              T
#:block? BandPoints              F
#:defined? BandPoints              F
BandLinesScale     ReciprocalLatticeVectors                                                        
%block BandLines
 1 0.5000000000 0.0000000000 0.0000000000
 100 0.0000000000 0.0000000000 0.0000000000
 400 0.0000000000 0.5000000000 0.0000000000
%endblock BandLines
#:block? BandLines              T
#:defined? BandLines              T
#:block? BandPoints              F
#:defined? BandPoints              F
BandLinesScale     ReciprocalLatticeVectors                                                        
%block BandLines
 1 0.5000000000 0.0000000000 0.0000000000
 100 0.0000000000 0.0000000000 0.0000000000
 400 0.0000000000 0.5000000000 0.0000000000
%endblock BandLines
LongOutput              F     # default value
WriteWaveFunctions              F     # default value
#:block-line-count? MetaForce (iirrr)   0
#:block? TS.BufferAtomsLeft              F
#:defined? TS.BufferAtomsLeft              F
#:block? TS.BufferAtomsRight              F
#:defined? TS.BufferAtomsRight              F
#:list? TS.Atoms.Buffer              F
TS.HS.Save              F     # default value
TS.DE.Save              F     # default value
TS.onlyS              F     # default value
TS.S.Save              F     # default value
AtomicCoordinatesFormat     Ang                                                                             
AtomCoorFormatOut     Ang                        # default value
LatticeConstant          1.889726878           Bohr
# above item originally: LatticeConstant          1.000000000     Ang       
debug-folding              F     # default value
Sonly              F     # default value
File.DM.Init     rot_dppp_0_0.DM     # default value
Sonly              F     # default value
Debug.DHSCF              F     # default value
MeshSubDivisions         2     # default value
#:list? Mesh.Sizes              F
XC.Use.BSC.CellXC              F     # default value
PROCS_PER_NODE         4     # default value
PROCS_PER_NODE         4     # default value
DirectPhi              F     # default value
SimulateDoping              F     # default value
Slab.DipoleCorrection     none     # default value
Read-H-from-file              F     # default value
SingleExcitation              F     # default value
OccupationFunction     FD     # default value
OccupationFunction     FD     # default value
compute-forces              T     # default value
#:list? Grid.CellSampling              F
Read-H-from-file              F     # default value
WriteCoorXmol              F     # default value
WriteCoorCerius              F     # default value
WFS.Write.For.Bands              F     # default value
BasisPressure         0.2000000000     GPa     # default value
OpticalCalculation              F     # default value
