
                           ***********************       
                           *  WELCOME TO SIESTA  *       
                           ***********************       

reinit: Reading from RUN.fdf

reinit: -----------------------------------------------------------------------
reinit: System Name: 
reinit: -----------------------------------------------------------------------
reinit: System Label: NPG
reinit: -----------------------------------------------------------------------
Siesta Version: siesta-4.1--736
Architecture  : unknown
Compiler flags: mpiifort -O2 -xHost -mp1 -fpp -ftz -I/scicomp/easybuild/CentOS/7.3.1611/Hasweell/software/imkl/2017.1.132-iimpi-2017a/mkl/include -I/scratch/scicomp/easybuild/CentOS/7.3.1611/Haswell/software/netCDF-Fortran/4.4.4-intel-2017a-HDF5-1.8.18/include -I/scratch/scicomp/easybuild/CentOS/7.3.1611/Haswell/software/netCDF/4.4.1.1-intel-2017a-HDF5-1.8.18/include
PP flags      :  -DFC_HAVE_ABORT -DMPI -DCDF -DGRID_DP
Libraries     : -L/scratch/scicomp/easybuild/CentOS/7.3.1611/Haswell/software/netCDF-Fortran//4.4.4-intel-2017a-HDF5-1.8.18/lib -lnetcdff -L/scratch/scicomp/easybuild/CentOS/7.3.1611/Haswell/software/cURL/7.53.1-GCCcore-6.3.0/lib -lcurl -L/scratch/scicomp/easybuild/CentOS/7.3.1611/Haswell/software/netCDF/4.4.1.1-intel-2017a-HDF5-1.8.18/lib64 -lnetcdf -L/scratch/scicomp/easybuild/CentOS/7.3.1611/Haswell/software/HDF5/1.8.18-intel-2017a/lib -lhdf5hl_fortran -lhdf5_fortran -lhdf5_hl -lhdf5 -L/scratch/scicomp/easybuild/CentOS/7.3.1611/Haswell/software/Szip/2.1-intel-2017a/lib -lsz -L/scratch/scicomp/easybuild/CentOS/7.3.1611/Haswell/software/zlib/1.2.11-GCCcore-6.3.0/lib -lz /scicomp/easybuild/CentOS/7.3.1611/Haswell/software/imkl/2017.1.132-iimpi-2017a/mkl/lib/intel64/libmkl_scalapack_lp64.a -Wl,--start-group /scicomp/easybuild/CentOS/7.3.1611/Haswell/software/imkl/2017.1.132-iimpi-2017a/mkl/lib/intel64/libmkl_intel_lp64.a /scicomp/easybuild/CentOS/7.3.1611/Haswell/software/imkl/2017.1.132-iimpi-2017a/mkl/lib/intel64/libmkl_sequential.a /scicomp/easybuild/CentOS/7.3.1611/Haswell/software/imkl/2017.1.132-iimpi-2017a/mkl/lib/intel64/libmkl_core.a /scicomp/easybuild/CentOS/7.3.1611/Haswell/software/imkl/2017.1.132-iimpi-2017a/mkl/lib/intel64/libmkl_blacs_intelmpi_lp64.a -Wl,--end-group -lpthread -lm -ldl
PARALLEL version
NetCDF support

* Running on 16 nodes in parallel
>> Start of run:  15-JUN-2021  11:35:28

initatom: Reading input for the pseudopotentials and atomic orbitals ----------
Species number:   1 Atomic number:    6 Label: C
Species number:   2 Atomic number:    1 Label: H
 
Ground state valence configuration:   2s02  2p02
Reading pseudopotential information in formatted form from C.psf

Pseudopotential generated from a relativistic atomic calculation
There are spin-orbit pseudopotentials available
Spin-orbit interaction is not included in this calculation

Valence configuration for pseudopotential generation:
2s( 2.00) rc: 1.25
2p( 2.00) rc: 1.25
3d( 0.00) rc: 1.98
4f( 0.00) rc: 1.98
Ground state valence configuration:   1s01
Reading pseudopotential information in formatted form from H.psf

Valence configuration for pseudopotential generation:
1s( 1.00) rc: 1.25
2p( 0.00) rc: 1.25
3d( 0.00) rc: 1.25
4f( 0.00) rc: 1.25
For C, standard SIESTA heuristics set lmxkb to 3
 (one more than the basis l, including polarization orbitals).
Use PS.lmax or PS.KBprojectors blocks to override.
For H, standard SIESTA heuristics set lmxkb to 2
 (one more than the basis l, including polarization orbitals).
Use PS.lmax or PS.KBprojectors blocks to override.

<basis_specs>
===============================================================================
C                    Z=   6    Mass=  12.010        Charge= 0.17977+309
Lmxo=1 Lmxkb= 3    BasisType=split      Semic=F
L=0  Nsemic=1  Cnfigmx=3
          n=1  nzeta=2  polorb=0
            splnorm:   0.15000    
               vcte:    0.0000    
               rinn:    0.0000    
               qcoe:    0.0000    
               qyuk:    0.0000    
               qwid:   0.10000E-01
                rcs:    0.0000      0.0000    
            lambdas:    1.0000      1.0000    
          n=2  nzeta=1  polorb=0
            splnorm:   0.15000    
               vcte:    0.0000    
               rinn:    0.0000    
               qcoe:    0.0000    
               qyuk:    0.0000    
               qwid:   0.10000E-01
                rcs:    10.000    
            lambdas:    1.0000    
L=1  Nsemic=1  Cnfigmx=3
          n=1  nzeta=2  polorb=1
            splnorm:   0.15000    
               vcte:    0.0000    
               rinn:    0.0000    
               qcoe:    0.0000    
               qyuk:    0.0000    
               qwid:   0.10000E-01
                rcs:    0.0000      0.0000    
            lambdas:    1.0000      1.0000    
          n=2  nzeta=1  polorb=0
            splnorm:   0.15000    
               vcte:    0.0000    
               rinn:    0.0000    
               qcoe:    0.0000    
               qyuk:    0.0000    
               qwid:   0.10000E-01
                rcs:    10.000    
            lambdas:    1.0000    
-------------------------------------------------------------------------------
L=0  Nkbl=2  erefs: 0.17977+309 0.17977+309
L=1  Nkbl=2  erefs: 0.17977+309 0.17977+309
L=2  Nkbl=1  erefs: 0.17977+309
L=3  Nkbl=1  erefs: 0.17977+309
===============================================================================
</basis_specs>

atom: Called for C                     (Z =   6)

read_vps: Pseudopotential generation method:
read_vps: ATM3      Troullier-Martins                       
Total valence charge:    4.00000

xc_check: Exchange-correlation functional:
xc_check: GGA Perdew, Burke & Ernzerhof 1996
V l=0 = -2*Zval/r beyond r=  1.5418
V l=1 = -2*Zval/r beyond r=  1.5418
V l=2 = -2*Zval/r beyond r=  1.9553
V l=3 = -2*Zval/r beyond r=  1.9310
All V_l potentials equal beyond r=  1.9310
This should be close to max(r_c) in ps generation
All pots = -2*Zval/r beyond r=  1.9553

VLOCAL1: 99.0% of the norm of Vloc inside     11.642 Ry
VLOCAL1: 99.9% of the norm of Vloc inside     26.531 Ry
atom: Maximum radius for 4*pi*r*r*local-pseudopot. charge    2.30035
atom: Maximum radius for r*vlocal+2*Zval:    2.00478
KBgen: More than one KB projector for l=  0
KBgen: ghost states analysis will be not performed
KBgen: More than one KB projector for l=  1
KBgen: ghost states analysis will be not performed
GHOST: No ghost state for L =  2
GHOST: No ghost state for L =  3

KBgen: Kleinman-Bylander projectors: 
   l= 0   rc=  2.134104   el= -1.010225   Ekb= 11.465766   kbcos=  0.116141
   l= 0   rc=  2.215668   el= -0.016208   Ekb= -6.003622   kbcos= -0.010458
   l= 1   rc=  2.107589   el= -0.388560   Ekb= -6.457899   kbcos= -0.368830
   l= 1   rc=  2.243543   el=  0.001052   Ekb= -0.909352   kbcos= -0.078069
   l= 2   rc=  2.300349   el=  0.001971   Ekb= -0.774314   kbcos= -0.017397
   l= 3   rc=  2.542323   el=  0.003065   Ekb= -0.308789   kbcos= -0.003148

KBgen: Total number of  Kleinman-Bylander projectors:   20
atom: -------------------------------------------------------------------------

atom: SANKEY-TYPE ORBITALS:
atom: Selected multiple-zeta basis: split     

SPLIT: Orbitals with angular momentum L= 0

SPLIT: Basis orbitals for state 2s

SPLIT: PAO cut-off radius determined from an
SPLIT: energy shift=  0.010000 Ry

   izeta = 1
                 lambda =    1.000000
                     rc =    4.518360
                 energy =   -1.000924
                kinetic =    0.901832
    potential(screened) =   -1.902756
       potential(ionic) =   -5.483597

   izeta = 2
                 rmatch =    3.431921
              splitnorm =    0.150000
                 energy =   -0.864009
                kinetic =    1.380864
    potential(screened) =   -2.244873
       potential(ionic) =   -6.058854

SPLIT: Basis orbitals for state 3s

   izeta = 1
                 lambda =    1.000000
                     rc =   10.056301
                 energy =    0.030880
                kinetic =    0.262429
    potential(screened) =   -0.231549
       potential(ionic) =   -1.753414

SPLIT: Orbitals with angular momentum L= 1

SPLIT: Basis orbitals for state 2p

SPLIT: PAO cut-off radius determined from an
SPLIT: energy shift=  0.010000 Ry

   izeta = 1
                 lambda =    1.000000
                     rc =    5.518829
                 energy =   -0.379580
                kinetic =    2.483773
    potential(screened) =   -2.863354
       potential(ionic) =   -6.317858

   izeta = 2
                 rmatch =    3.607901
              splitnorm =    0.150000
                 energy =   -0.233312
                kinetic =    3.744417
    potential(screened) =   -3.977729
       potential(ionic) =   -7.820633

SPLIT: Basis orbitals for state 3p

   izeta = 1
                 lambda =    1.000000
                     rc =   10.056301
                 energy =    0.131201
                kinetic =    0.549724
    potential(screened) =   -0.418523
       potential(ionic) =   -1.897204

POLgen: Perturbative polarization orbital with L=  2

POLgen: Polarization orbital for state 2p

   izeta = 1
                     rc =    5.518829
                 energy =    1.134118
                kinetic =    2.331218
    potential(screened) =   -1.197099
       potential(ionic) =   -4.032010
atom: Total number of Sankey-type orbitals: 17

atm_pop: Valence configuration (for local Pseudopot. screening):
 2s( 2.00)                                                            
 2p( 2.00)                                                            
Vna: chval, zval:    4.00000   4.00000

Vna:  Cut-off radius for the neutral-atom potential:   5.518829

atom: _________________________________________________________________________

<basis_specs>
===============================================================================
H                    Z=   1    Mass=  1.0100        Charge= 0.17977+309
Lmxo=0 Lmxkb= 2    BasisType=split      Semic=F
L=0  Nsemic=0  Cnfigmx=1
          n=1  nzeta=2  polorb=1
            splnorm:   0.15000    
               vcte:    0.0000    
               rinn:    0.0000    
               qcoe:    0.0000    
               qyuk:    0.0000    
               qwid:   0.10000E-01
                rcs:    0.0000      0.0000    
            lambdas:    1.0000      1.0000    
-------------------------------------------------------------------------------
L=0  Nkbl=1  erefs: 0.17977+309
L=1  Nkbl=1  erefs: 0.17977+309
L=2  Nkbl=1  erefs: 0.17977+309
===============================================================================
</basis_specs>

atom: Called for H                     (Z =   1)

read_vps: Pseudopotential generation method:
read_vps: ATM3      Troullier-Martins                       
Total valence charge:    1.00000

xc_check: Exchange-correlation functional:
xc_check: GGA Perdew, Burke & Ernzerhof 1996
V l=0 = -2*Zval/r beyond r=  1.2343
V l=1 = -2*Zval/r beyond r=  1.2189
V l=2 = -2*Zval/r beyond r=  1.2189
All V_l potentials equal beyond r=  1.2343
This should be close to max(r_c) in ps generation
All pots = -2*Zval/r beyond r=  1.2343

VLOCAL1: 99.0% of the norm of Vloc inside     28.493 Ry
VLOCAL1: 99.9% of the norm of Vloc inside     64.935 Ry
atom: Maximum radius for 4*pi*r*r*local-pseudopot. charge    1.45251
atom: Maximum radius for r*vlocal+2*Zval:    1.21892
GHOST: No ghost state for L =  0
GHOST: No ghost state for L =  1
GHOST: No ghost state for L =  2

KBgen: Kleinman-Bylander projectors: 
   l= 0   rc=  1.364359   el= -0.477200   Ekb= -2.021939   kbcos= -0.344793
   l= 1   rc=  1.434438   el=  0.001076   Ekb= -0.443447   kbcos= -0.022843
   l= 2   rc=  1.470814   el=  0.002010   Ekb= -0.140543   kbcos= -0.002863

KBgen: Total number of  Kleinman-Bylander projectors:    9
atom: -------------------------------------------------------------------------

atom: SANKEY-TYPE ORBITALS:
atom: Selected multiple-zeta basis: split     

SPLIT: Orbitals with angular momentum L= 0

SPLIT: Basis orbitals for state 1s

SPLIT: PAO cut-off radius determined from an
SPLIT: energy shift=  0.010000 Ry

   izeta = 1
                 lambda =    1.000000
                     rc =    5.204501
                 energy =   -0.466874
                kinetic =    0.935616
    potential(screened) =   -1.402489
       potential(ionic) =   -1.927169

   izeta = 2
                 rmatch =    3.903467
              splitnorm =    0.150000
                 energy =   -0.359380
                kinetic =    1.518080
    potential(screened) =   -1.877460
       potential(ionic) =   -2.426500

POLgen: Perturbative polarization orbital with L=  1

POLgen: Polarization orbital for state 1s

   izeta = 1
                     rc =    5.204501
                 energy =    0.666831
                kinetic =    1.331374
    potential(screened) =   -0.664544
       potential(ionic) =   -1.147060
atom: Total number of Sankey-type orbitals:  5

atm_pop: Valence configuration (for local Pseudopot. screening):
 1s( 1.00)                                                            
Vna: chval, zval:    1.00000   1.00000

Vna:  Cut-off radius for the neutral-atom potential:   5.204501

atom: _________________________________________________________________________

prinput: Basis input ----------------------------------------------------------

PAO.BasisType split     

%block ChemicalSpeciesLabel
    1    6 C                       # Species index, atomic number, species label
    2    1 H                       # Species index, atomic number, species label
%endblock ChemicalSpeciesLabel

%block PAO.Basis                 # Define Basis set
C                     4                    # Species label, number of l-shells
 n=2   0   2                         # n, l, Nzeta 
   4.518      3.432   
   1.000      1.000   
 n=3   0   1                         # n, l, Nzeta 
  10.056   
   1.000   
 n=2   1   2 P   1                   # n, l, Nzeta, Polarization, NzetaPol
   5.519      3.608   
   1.000      1.000   
 n=3   1   1                         # n, l, Nzeta 
  10.056   
   1.000   
H                     1                    # Species label, number of l-shells
 n=1   0   2 P   1                   # n, l, Nzeta, Polarization, NzetaPol
   5.205      3.903   
   1.000      1.000   
%endblock PAO.Basis

prinput: ----------------------------------------------------------------------

Dumping basis to NetCDF file C.ion.nc
Dumping basis to NetCDF file H.ion.nc
  -- Read structural information from NPG.STRUCT_IN

siesta: Atomic coordinates (Bohr) and species
siesta:      0.00000  13.78852   0.00000  1        1
siesta:      2.36097  12.40888   0.00000  1        2
siesta:      2.35375   9.67405  -0.00000  1        3
siesta:      0.00000   8.29350  -0.00000  1        4
siesta:      2.35497   4.18833   0.00000  1        5
siesta:      2.36128   1.45307   0.00000  1        6
siesta:      4.71128  13.78154   0.00000  1        7
siesta:      7.06777  12.39995   0.00000  1        8
siesta:      6.99267   9.73706   0.00000  1        9
siesta:      4.71421   8.31985   0.00000  1       10
siesta:      4.71645   5.54323   0.00000  1       11
siesta:      6.99633   4.12754   0.00000  1       12
siesta:      7.06807   1.46306   0.00000  1       13
siesta:      4.71029   0.08055   0.00000  1       14
siesta:      9.48655  13.79411   0.00000  1       15
siesta:     11.84552  12.50087   0.00000  1       16
siesta:     11.83165  10.41795   0.00000  2       17
siesta:      8.79592   8.69710   0.00000  2       18
siesta:      8.80463   5.16010   0.00000  2       19
siesta:     11.95619   3.41923   0.00000  2       20
siesta:     11.86871   1.33187   0.00000  1       21
siesta:      9.47903   0.07348   0.00000  1       22
siesta:     14.20939  13.74045   0.00000  1       23
siesta:     16.62809  12.28082   0.00000  1       24
siesta:     16.68033   9.57555   0.00000  1       25
siesta:     14.90915   8.46818  -0.00000  2       26
siesta:     15.92833   1.11861  -0.00000  2       27
siesta:     14.15715   0.01123   0.00000  1       28
siesta:     18.99197  13.52040   0.00000  1       29
siesta:     21.35093  12.22717   0.00000  1       30
siesta:     21.35845   9.51330   0.00000  1       31
siesta:     18.96877   8.25492   0.00000  1       32
siesta:     18.88130   6.16755   0.00000  2       33
siesta:     22.03285   4.42668  -0.00000  2       34
siesta:     22.04156   0.88969  -0.00000  2       35
siesta:     19.00583  -0.83117   0.00000  2       36
siesta:     23.76971  13.62133   0.00000  1       37
siesta:     26.12621  12.23974   0.00000  1       38
siesta:     26.12719   9.50624   0.00000  1       39
siesta:     23.76942   8.12372   0.00000  1       40
siesta:     23.84115   5.45925   0.00000  1       41
siesta:     26.12103   4.04355   0.00000  1       42
siesta:     26.12327   1.26694   0.00000  1       43
siesta:     23.84481  -0.15028   0.00000  1       44
siesta:     28.47651  13.61239   0.00000  1       45
siesta:     30.83748  12.23275   0.00000  1       46
siesta:     30.83748   9.51334   0.00000  1       47
siesta:     28.47620   8.13371   0.00000  1       48
siesta:     28.48251   5.39846   0.00000  1       49
siesta:     30.83748   4.01846   0.00000  1       50
siesta:     30.83748   1.29328   0.00000  1       51
siesta:     28.48373  -0.08726   0.00000  1       52
siesta:     33.19845  13.61239   0.00000  1       53
siesta:     35.54876  12.23974   0.00000  1       54
siesta:     35.54777   9.50624   0.00000  1       55
siesta:     33.19877   8.13371   0.00000  1       56
siesta:     33.19245   5.39846   0.00000  1       57
siesta:     35.55393   4.04355   0.00000  1       58
siesta:     35.55169   1.26694   0.00000  1       59
siesta:     33.19123  -0.08726   0.00000  1       60
siesta:     37.90526  13.62133   0.00000  1       61
siesta:     40.32403  12.22717   0.00000  1       62
siesta:     40.31651   9.51330   0.00000  1       63
siesta:     37.90555   8.12372   0.00000  1       64
siesta:     37.83381   5.45925   0.00000  1       65
siesta:     39.64211   4.42668  -0.00000  2       66
siesta:     39.63340   0.88969  -0.00000  2       67
siesta:     37.83015  -0.15028   0.00000  1       68
siesta:     42.68300  13.52040   0.00000  1       69
siesta:     45.04687  12.28082   0.00000  1       70
siesta:     44.99463   9.57555   0.00000  1       71
siesta:     42.70620   8.25492   0.00000  1       72
siesta:     42.79367   6.16755   0.00000  2       73
siesta:     45.74663   1.11861   0.00000  2       74
siesta:     42.66913  -0.83117   0.00000  2       75
siesta:     47.46557  13.74045   0.00000  1       76
siesta:     49.82945  12.50087   0.00000  1       77
siesta:     49.84331  10.41795   0.00000  2       78
siesta:     46.76581   8.46818  -0.00000  2       79
siesta:     49.71878   3.41923   0.00000  2       80
siesta:     49.80625   1.33187   0.00000  1       81
siesta:     47.51781   0.01123   0.00000  1       82
siesta:     52.18841  13.79411  -0.00000  1       83
siesta:     54.60719  12.39995  -0.00000  1       84
siesta:     54.68229   9.73706   0.00000  1       85
siesta:     52.87904   8.69710   0.00000  2       86
siesta:     52.87033   5.16010  -0.00000  2       87
siesta:     54.67863   4.12754   0.00000  1       88
siesta:     54.60690   1.46306   0.00000  1       89
siesta:     52.19593   0.07348  -0.00000  1       90
siesta:     56.96369  13.78154  -0.00000  1       91
siesta:     59.31399  12.40888   0.00000  1       92
siesta:     59.32121   9.67405  -0.00000  1       93
siesta:     56.96075   8.31985   0.00000  1       94
siesta:     56.95851   5.54323   0.00000  1       95
siesta:     59.31999   4.18833   0.00000  1       96
siesta:     59.31368   1.45307   0.00000  1       97
siesta:     56.96468   0.08055   0.00000  1       98
siesta:     61.67496   5.56832   0.00000  1       99
siesta:     61.67496   0.07344   0.00000  1      100

siesta: System type = slab      

initatomlists: Number of atoms, orbitals, and projectors:    100  1460  1780

siesta: ******************** Simulation parameters ****************************
siesta:
siesta: The following are some of the parameters of the simulation.
siesta: A complete list of the parameters used, including default values,
siesta: can be found in file out.fdf
siesta:
redata: Spin configuration                          = none
redata: Number of spin components                   = 1
redata: Time-Reversal Symmetry                      = T
redata: Spin-spiral                                 = F
redata: Long output                                 =   F
redata: Number of Atomic Species                    =        2
redata: Charge density info will appear in .RHO file
redata: Write Mulliken Pop.                         = NO
redata: Mesh Cutoff                                 =   400.0000 Ry
redata: Net charge of the system                    =     0.0000 |e|
redata: Min. number of SCF Iter                     =        0
redata: Max. number of SCF Iter                     =      500
redata: SCF mix quantity                            = Hamiltonian
redata: Mix DM or H after convergence               =   F
redata: Recompute H after scf cycle                 =   F
redata: Mix DM in first SCF step                    =   T
redata: Write Pulay info on disk                    =   F
redata: New DM Mixing Weight                        =     0.2500
redata: New DM Occupancy tolerance                  = 0.000000000001
redata: No kicks to SCF
redata: DM Mixing Weight for Kicks                  =     0.5000
redata: Require Harris convergence for SCF          =   F
redata: Harris energy tolerance for SCF             =     0.000100 eV
redata: Require DM convergence for SCF              =   T
redata: DM tolerance for SCF                        =     0.0001
redata: Require EDM convergence for SCF             =   F
redata: EDM tolerance for SCF                       =     0.001000 eV
redata: Require H convergence for SCF               =   T
redata: Hamiltonian tolerance for SCF               =     0.000100 eV
redata: Require (free) Energy convergence for SCF   =   F
redata: (free) Energy tolerance for SCF             =     0.000100 eV
redata: Using Saved Data (generic)                  =   F
redata: Use continuation files for DM               =   T
redata: Neglect nonoverlap interactions             =   F
redata: Method of Calculation                       = Diagonalization
redata: Divide and Conquer                          =   T
redata: Electronic Temperature                      =   299.9869 K
redata: Fix the spin of the system                  =   F
redata: Dynamics option                             = Single-point calculation
mix.SCF: Pulay mixing                            = Pulay
mix.SCF:    Variant                              = stable
mix.SCF:    History steps                        = 5
mix.SCF:    Linear mixing weight                 =     0.250000
mix.SCF:    Mixing weight                        =     0.250000
mix.SCF:    SVD condition                        = 0.1000E-07
redata: ***********************************************************************

%block SCF.Mixers
  Pulay
%endblock SCF.Mixers

%block SCF.Mixer.Pulay
  # Mixing method
  method pulay
  variant stable

  # Mixing options
  weight 0.2500
  weight.linear 0.2500
  history 5
%endblock SCF.Mixer.Pulay
 
DM_history_depth set to one: no extrapolation allowed by default for geometry relaxation
Size of DM history Fstack: 1
Total number of electrons:   340.000000
Total ionic charge:   340.000000

* ProcessorY, Blocksize:    4  24


* Orbital distribution balance (max,min):    96    72

 Kpoints in:          390 . Kpoints trimmed:          383

siesta: k-grid: Number of k-points =   383
siesta: k-grid: Cutoff (effective) =    25.000 Ang
siesta: k-grid: Supercell and displacements
siesta: k-grid:   15   0   0      0.000
siesta: k-grid:    0  51   0      0.000
siesta: k-grid:    0   0   1      0.000

superc: Internal auxiliary supercell:     3 x     5 x     1  =      15
superc: Number of atoms, orbitals, and projectors:   1500  21900  26700
 

                     ====================================
                        Single-point calculation
                     ====================================

superc: Internal auxiliary supercell:     3 x     5 x     1  =      15
superc: Number of atoms, orbitals, and projectors:   1500  21900  26700

outcell: Unit cell vectors (Ang):
       32.636972    0.000000    0.000000
        0.000000    8.696753    0.000000
        0.000000    0.000000   50.000000

outcell: Cell vector modules (Ang)   :   32.636972    8.696753   50.000000
outcell: Cell angles (23,13,12) (deg):     90.0000     90.0000     90.0000
outcell: Cell volume (Ang**3)        :  14191.7837
<dSpData1D:S at geom step 0
  <sparsity:sparsity for geom step 0
    nrows_g=1460 nrows=96 sparsity=.0496 nnzs=105825, refcount: 7>
  <dData1D:(new from dSpData1D) n=105825, refcount: 1>
refcount: 1>
new_DM -- step:     1
Initializing Density Matrix...
 
Attempting to read DM from file... Succeeded...
DM from file:
<dSpData2D:IO-DM: NPG.DM
  <sparsity:IO-DM: NPG.DM
    nrows_g=1460 nrows=96 sparsity=.0496 nnzs=105825, refcount: 1>
  <dData2D:(new from dSpData2D) n=105825 m=1, refcount: 1>
refcount: 1>
 
No. of atoms with KB's overlaping orbs in proc 0. Max # of overlaps:     205     421
New grid distribution:   1
           1       1:  200    1:   14    1:   80
           2       1:  200    1:   14   81:  160
           3       1:  200    1:   14  161:  240
           4       1:  200    1:   14  241:  320
           5       1:  200   15:   28    1:   80
           6       1:  200   15:   28   81:  160
           7       1:  200   15:   28  161:  240
           8       1:  200   15:   28  241:  320
           9       1:  200   29:   41    1:   80
          10       1:  200   29:   41   81:  160
          11       1:  200   29:   41  161:  240
          12       1:  200   29:   41  241:  320
          13       1:  200   42:   54    1:   80
          14       1:  200   42:   54   81:  160
          15       1:  200   42:   54  161:  240
          16       1:  200   42:   54  241:  320

InitMesh: MESH =   400 x   108 x   640 =    27648000
InitMesh: (bp) =   200 x    54 x   320 =     3456000
InitMesh: Mesh cutoff (required, used) =   400.000   415.147 Ry
ExtMesh (bp) on 0 =   332 x   150 x   220 =    10956000
New grid distribution:   2
           1     151:  200    1:   54    8:   25
           2     151:  200    1:   54   26:  313
           3     101:  150    1:   54    1:    7
           4      51:  100    1:   54  314:  320
           5     101:  150    1:   54    8:   25
           6     101:  150    1:   54   26:  313
           7       1:   50    1:   54    1:    7
           8     151:  200    1:   54  314:  320
           9       1:   50    1:   54    8:   25
          10      51:  100    1:   54   26:  313
          11     151:  200    1:   54    1:    7
          12     101:  150    1:   54  314:  320
          13      51:  100    1:   54    8:   25
          14       1:   50    1:   54   26:  313
          15      51:  100    1:   54    1:    7
          16       1:   50    1:   54  314:  320
New grid distribution:   3
           1     151:  200    1:   54   18:   94
           2     101:  150    1:   54    1:   17
           3     151:  200    1:   54   95:  303
           4      51:  100    1:   54  304:  320
           5     101:  150    1:   54   18:   94
           6       1:   50    1:   54    1:   17
           7     101:  150    1:   54   95:  303
           8     151:  200    1:   54  304:  320
           9       1:   50    1:   54   18:   94
          10     151:  200    1:   54    1:   17
          11      51:  100    1:   54   95:  303
          12     101:  150    1:   54  304:  320
          13      51:  100    1:   54   18:   94
          14      51:  100    1:   54    1:   17
          15       1:   50    1:   54   95:  303
          16       1:   50    1:   54  304:  320
Setting up quadratic distribution...
ExtMesh (bp) on 0 =   182 x   190 x   158 =     5463640
PhiOnMesh: Number of (b)points on node 0 =                48600
PhiOnMesh: nlist on node 0 =              5138116

stepf: Fermi-Dirac step function

siesta: Program's energy decomposition (eV):
siesta: Ebs     =     -4426.655753
siesta: Eions   =     16518.285276
siesta: Ena     =      1776.997445
siesta: Ekin    =      9115.501774
siesta: Enl     =     -2860.043919
siesta: Eso     =         0.000000
siesta: Eldau   =         0.000000
siesta: DEna    =      -284.012601
siesta: DUscf   =        29.642023
siesta: DUext   =         0.000000
siesta: Exc     =     -3963.380681
siesta: eta*DQ  =         0.000000
siesta: Emadel  =         0.000000
siesta: Emeta   =         0.000000
siesta: Emolmec =         0.000000
siesta: Ekinion =         0.000000
siesta: Eharris =    -12703.580772
siesta: Etot    =    -12703.581235
siesta: FreeEng =    -12703.581236

        iscf     Eharris(eV)        E_KS(eV)     FreeEng(eV)     dDmax    Ef(eV) dHmax(eV)
   scf:    1   -12703.580772   -12703.581235   -12703.581236  0.000418 -4.257737  0.000174
timer: Routine,Calls,Time,% = IterSCF        1     602.535  97.62
   scf:    2   -12703.581235   -12703.581235   -12703.581236  0.000007 -4.257786  0.000298
   scf:    3   -12703.581235   -12703.581235   -12703.581236  0.000004 -4.257758  0.000024

SCF Convergence by DM+H criterion
max |DM_out - DM_in|         :     0.0000040851
max |H_out - H_in|      (eV) :     0.0000239303
SCF cycle converged after 3 iterations

Using DM_out to compute the final energy and forces
No. of atoms with KB's overlaping orbs in proc 0. Max # of overlaps:     205     421

siesta: E_KS(eV) =           -12703.5812

siesta: E_KS - E_eggbox =    -12703.5812

siesta: Atomic forces (eV/Ang):
----------------------------------------
   Tot   -0.000000    0.000000    0.000000
----------------------------------------
   Max    0.016472
   Res    0.005337    sqrt( Sum f_i^2 / 3N )
----------------------------------------
   Max    0.016472    constrained

Stress-tensor-Voigt (kbar):       -0.63        0.74        0.01       -0.00       -0.00       -0.00
(Free)E + p*V (eV/cell)   -12703.9062
Target enthalpy (eV/cell)   -12703.5812

siesta: Program's energy decomposition (eV):
siesta: Ebs     =     -4426.648250
siesta: Eions   =     16518.285276
siesta: Ena     =      1776.997445
siesta: Ekin    =      9115.506986
siesta: Enl     =     -2860.046154
siesta: Eso     =         0.000000
siesta: Eldau   =         0.000000
siesta: DEna    =      -284.014910
siesta: DUscf   =        29.642347
siesta: DUext   =         0.000000
siesta: Exc     =     -3963.381675
siesta: eta*DQ  =         0.000000
siesta: Emadel  =         0.000000
siesta: Emeta   =         0.000000
siesta: Emolmec =         0.000000
siesta: Ekinion =         0.000000
siesta: Eharris =    -12703.581235
siesta: Etot    =    -12703.581235
siesta: FreeEng =    -12703.581236

siesta: Final energy (eV):
siesta:  Band Struct. =   -4426.648250
siesta:       Kinetic =    9115.506986
siesta:       Hartree =  147410.520917
siesta:       Eldau   =       0.000000
siesta:       Eso     =       0.000000
siesta:    Ext. field =       0.000000
siesta:   Exch.-corr. =   -3963.381675
siesta:  Ion-electron = -303207.214178
siesta:       Ion-ion =  137940.986714
siesta:       Ekinion =       0.000000
siesta:         Total =  -12703.581235
siesta:         Fermi =      -4.257758

siesta: Stress tensor (static) (eV/Ang**3):
siesta:    -0.000396   -0.000000    0.000000
siesta:    -0.000000    0.000460   -0.000000
siesta:    -0.000000   -0.000000    0.000004

siesta: Cell volume =      14191.783745 Ang**3

siesta: Pressure (static):
siesta:                Solid            Molecule  Units
siesta:          -0.00000025         -0.00000041  Ry/Bohr**3
siesta:          -0.00002290         -0.00003721  eV/Ang**3
siesta:          -0.03669184         -0.05962477  kBar
(Free)E+ p_basis*V_orbitals  =      -12540.238600
(Free)Eharris+ p_basis*V_orbitals  =      -12540.238600

siesta: Electric dipole (a.u.)  =    0.000000    0.000000   -0.000000
siesta: Electric dipole (Debye) =    0.000000    0.000000   -0.000000
>> End of run:  15-JUN-2021  12:05:25
Job completed
Job completed
