
                           ***********************       
                           *  WELCOME TO SIESTA  *       
                           ***********************       

reinit: Reading from RUN.fdf

reinit: -----------------------------------------------------------------------
reinit: System Name: 
reinit: -----------------------------------------------------------------------
reinit: System Label: 7-AGNR
reinit: -----------------------------------------------------------------------
Siesta Version: siesta-4.1--736
Architecture  : unknown
Compiler flags: mpiifort -O2 -xHost -mp1 -fpp -ftz -I/scicomp/easybuild/CentOS/7.3.1611/Hasweell/software/imkl/2017.1.132-iimpi-2017a/mkl/include -I/scratch/scicomp/easybuild/CentOS/7.3.1611/Haswell/software/netCDF-Fortran/4.4.4-intel-2017a-HDF5-1.8.18/include -I/scratch/scicomp/easybuild/CentOS/7.3.1611/Haswell/software/netCDF/4.4.1.1-intel-2017a-HDF5-1.8.18/include
PP flags      :  -DFC_HAVE_ABORT -DMPI -DCDF -DGRID_DP
Libraries     : -L/scratch/scicomp/easybuild/CentOS/7.3.1611/Haswell/software/netCDF-Fortran//4.4.4-intel-2017a-HDF5-1.8.18/lib -lnetcdff -L/scratch/scicomp/easybuild/CentOS/7.3.1611/Haswell/software/cURL/7.53.1-GCCcore-6.3.0/lib -lcurl -L/scratch/scicomp/easybuild/CentOS/7.3.1611/Haswell/software/netCDF/4.4.1.1-intel-2017a-HDF5-1.8.18/lib64 -lnetcdf -L/scratch/scicomp/easybuild/CentOS/7.3.1611/Haswell/software/HDF5/1.8.18-intel-2017a/lib -lhdf5hl_fortran -lhdf5_fortran -lhdf5_hl -lhdf5 -L/scratch/scicomp/easybuild/CentOS/7.3.1611/Haswell/software/Szip/2.1-intel-2017a/lib -lsz -L/scratch/scicomp/easybuild/CentOS/7.3.1611/Haswell/software/zlib/1.2.11-GCCcore-6.3.0/lib -lz /scicomp/easybuild/CentOS/7.3.1611/Haswell/software/imkl/2017.1.132-iimpi-2017a/mkl/lib/intel64/libmkl_scalapack_lp64.a -Wl,--start-group /scicomp/easybuild/CentOS/7.3.1611/Haswell/software/imkl/2017.1.132-iimpi-2017a/mkl/lib/intel64/libmkl_intel_lp64.a /scicomp/easybuild/CentOS/7.3.1611/Haswell/software/imkl/2017.1.132-iimpi-2017a/mkl/lib/intel64/libmkl_sequential.a /scicomp/easybuild/CentOS/7.3.1611/Haswell/software/imkl/2017.1.132-iimpi-2017a/mkl/lib/intel64/libmkl_core.a /scicomp/easybuild/CentOS/7.3.1611/Haswell/software/imkl/2017.1.132-iimpi-2017a/mkl/lib/intel64/libmkl_blacs_intelmpi_lp64.a -Wl,--end-group -lpthread -lm -ldl
PARALLEL version
NetCDF support

* Running on 8 nodes in parallel
>> Start of run:  27-MAY-2021  10:39:16

initatom: Reading input for the pseudopotentials and atomic orbitals ----------
Species number:   1 Atomic number:    1 Label: H
Species number:   2 Atomic number:    6 Label: C
 
Ground state valence configuration:   1s01
Reading pseudopotential information in formatted form from H.psf

Valence configuration for pseudopotential generation:
1s( 1.00) rc: 1.25
2p( 0.00) rc: 1.25
3d( 0.00) rc: 1.25
4f( 0.00) rc: 1.25
Ground state valence configuration:   2s02  2p02
Reading pseudopotential information in formatted form from C.psf

Pseudopotential generated from a relativistic atomic calculation
There are spin-orbit pseudopotentials available
Spin-orbit interaction is not included in this calculation

Valence configuration for pseudopotential generation:
2s( 2.00) rc: 1.25
2p( 2.00) rc: 1.25
3d( 0.00) rc: 1.98
4f( 0.00) rc: 1.98
For H, standard SIESTA heuristics set lmxkb to 2
 (one more than the basis l, including polarization orbitals).
Use PS.lmax or PS.KBprojectors blocks to override.
For C, standard SIESTA heuristics set lmxkb to 3
 (one more than the basis l, including polarization orbitals).
Use PS.lmax or PS.KBprojectors blocks to override.

<basis_specs>
===============================================================================
H                    Z=   1    Mass=  1.0100        Charge= 0.17977+309
Lmxo=0 Lmxkb= 2    BasisType=split      Semic=F
L=0  Nsemic=0  Cnfigmx=1
          n=1  nzeta=2  polorb=1
            splnorm:   0.15000    
               vcte:    0.0000    
               rinn:    0.0000    
               qcoe:    0.0000    
               qyuk:    0.0000    
               qwid:   0.10000E-01
                rcs:    0.0000      0.0000    
            lambdas:    1.0000      1.0000    
-------------------------------------------------------------------------------
L=0  Nkbl=1  erefs: 0.17977+309
L=1  Nkbl=1  erefs: 0.17977+309
L=2  Nkbl=1  erefs: 0.17977+309
===============================================================================
</basis_specs>

atom: Called for H                     (Z =   1)

read_vps: Pseudopotential generation method:
read_vps: ATM3      Troullier-Martins                       
Total valence charge:    1.00000

xc_check: Exchange-correlation functional:
xc_check: GGA Perdew, Burke & Ernzerhof 1996
V l=0 = -2*Zval/r beyond r=  1.2343
V l=1 = -2*Zval/r beyond r=  1.2189
V l=2 = -2*Zval/r beyond r=  1.2189
All V_l potentials equal beyond r=  1.2343
This should be close to max(r_c) in ps generation
All pots = -2*Zval/r beyond r=  1.2343

VLOCAL1: 99.0% of the norm of Vloc inside     28.493 Ry
VLOCAL1: 99.9% of the norm of Vloc inside     64.935 Ry
atom: Maximum radius for 4*pi*r*r*local-pseudopot. charge    1.45251
atom: Maximum radius for r*vlocal+2*Zval:    1.21892
GHOST: No ghost state for L =  0
GHOST: No ghost state for L =  1
GHOST: No ghost state for L =  2

KBgen: Kleinman-Bylander projectors: 
   l= 0   rc=  1.364359   el= -0.477200   Ekb= -2.021939   kbcos= -0.344793
   l= 1   rc=  1.434438   el=  0.001076   Ekb= -0.443447   kbcos= -0.022843
   l= 2   rc=  1.470814   el=  0.002010   Ekb= -0.140543   kbcos= -0.002863

KBgen: Total number of  Kleinman-Bylander projectors:    9
atom: -------------------------------------------------------------------------

atom: SANKEY-TYPE ORBITALS:
atom: Selected multiple-zeta basis: split     

SPLIT: Orbitals with angular momentum L= 0

SPLIT: Basis orbitals for state 1s

SPLIT: PAO cut-off radius determined from an
SPLIT: energy shift=  0.020000 Ry

   izeta = 1
                 lambda =    1.000000
                     rc =    4.708991
                 energy =   -0.457754
                kinetic =    0.981121
    potential(screened) =   -1.438875
       potential(ionic) =   -1.967271

   izeta = 2
                 rmatch =    3.759707
              splitnorm =    0.150000
                 energy =   -0.338992
                kinetic =    1.585719
    potential(screened) =   -1.924710
       potential(ionic) =   -2.475126

POLgen: Perturbative polarization orbital with L=  1

POLgen: Polarization orbital for state 1s

   izeta = 1
                     rc =    4.708991
                 energy =    0.764908
                kinetic =    1.475831
    potential(screened) =   -0.710923
       potential(ionic) =   -1.203369
atom: Total number of Sankey-type orbitals:  5

atm_pop: Valence configuration (for local Pseudopot. screening):
 1s( 1.00)                                                            
Vna: chval, zval:    1.00000   1.00000

Vna:  Cut-off radius for the neutral-atom potential:   4.708991

atom: _________________________________________________________________________

<basis_specs>
===============================================================================
C                    Z=   6    Mass=  12.010        Charge= 0.17977+309
Lmxo=1 Lmxkb= 3    BasisType=split      Semic=F
L=0  Nsemic=0  Cnfigmx=2
          n=1  nzeta=2  polorb=0
            splnorm:   0.15000    
               vcte:    0.0000    
               rinn:    0.0000    
               qcoe:    0.0000    
               qyuk:    0.0000    
               qwid:   0.10000E-01
                rcs:    0.0000      0.0000    
            lambdas:    1.0000      1.0000    
L=1  Nsemic=0  Cnfigmx=2
          n=1  nzeta=2  polorb=1
            splnorm:   0.15000    
               vcte:    0.0000    
               rinn:    0.0000    
               qcoe:    0.0000    
               qyuk:    0.0000    
               qwid:   0.10000E-01
                rcs:    0.0000      0.0000    
            lambdas:    1.0000      1.0000    
-------------------------------------------------------------------------------
L=0  Nkbl=1  erefs: 0.17977+309
L=1  Nkbl=1  erefs: 0.17977+309
L=2  Nkbl=1  erefs: 0.17977+309
L=3  Nkbl=1  erefs: 0.17977+309
===============================================================================
</basis_specs>

atom: Called for C                     (Z =   6)

read_vps: Pseudopotential generation method:
read_vps: ATM3      Troullier-Martins                       
Total valence charge:    4.00000

xc_check: Exchange-correlation functional:
xc_check: GGA Perdew, Burke & Ernzerhof 1996
V l=0 = -2*Zval/r beyond r=  1.5418
V l=1 = -2*Zval/r beyond r=  1.5418
V l=2 = -2*Zval/r beyond r=  1.9553
V l=3 = -2*Zval/r beyond r=  1.9310
All V_l potentials equal beyond r=  1.9310
This should be close to max(r_c) in ps generation
All pots = -2*Zval/r beyond r=  1.9553

VLOCAL1: 99.0% of the norm of Vloc inside     11.642 Ry
VLOCAL1: 99.9% of the norm of Vloc inside     26.531 Ry
atom: Maximum radius for 4*pi*r*r*local-pseudopot. charge    2.30035
atom: Maximum radius for r*vlocal+2*Zval:    2.00478
GHOST: No ghost state for L =  0
GHOST: No ghost state for L =  1
GHOST: No ghost state for L =  2
GHOST: No ghost state for L =  3

KBgen: Kleinman-Bylander projectors: 
   l= 0   rc=  2.134104   el= -1.010225   Ekb= 11.465766   kbcos=  0.116141
   l= 1   rc=  2.107589   el= -0.388560   Ekb= -6.457899   kbcos= -0.368830
   l= 2   rc=  2.300349   el=  0.001971   Ekb= -0.774314   kbcos= -0.017397
   l= 3   rc=  2.542323   el=  0.003065   Ekb= -0.308789   kbcos= -0.003148

KBgen: Total number of  Kleinman-Bylander projectors:   16
atom: -------------------------------------------------------------------------

atom: SANKEY-TYPE ORBITALS:
atom: Selected multiple-zeta basis: split     

SPLIT: Orbitals with angular momentum L= 0

SPLIT: Basis orbitals for state 2s

SPLIT: PAO cut-off radius determined from an
SPLIT: energy shift=  0.020000 Ry

   izeta = 1
                 lambda =    1.000000
                     rc =    4.088342
                 energy =   -0.989563
                kinetic =    0.944133
    potential(screened) =   -1.933696
       potential(ionic) =   -5.541314

   izeta = 2
                 rmatch =    3.347176
              splitnorm =    0.150000
                 energy =   -0.831414
                kinetic =    1.451472
    potential(screened) =   -2.282886
       potential(ionic) =   -6.119280

SPLIT: Orbitals with angular momentum L= 1

SPLIT: Basis orbitals for state 2p

SPLIT: PAO cut-off radius determined from an
SPLIT: energy shift=  0.020000 Ry

   izeta = 1
                 lambda =    1.000000
                     rc =    4.870301
                 energy =   -0.368749
                kinetic =    2.591962
    potential(screened) =   -2.960711
       potential(ionic) =   -6.464403

   izeta = 2
                 rmatch =    3.475094
              splitnorm =    0.150000
                 energy =   -0.206255
                kinetic =    3.888945
    potential(screened) =   -4.095199
       potential(ionic) =   -7.968192

POLgen: Perturbative polarization orbital with L=  2

POLgen: Polarization orbital for state 2p

   izeta = 1
                     rc =    4.870301
                 energy =    1.295231
                kinetic =    2.621946
    potential(screened) =   -1.326714
       potential(ionic) =   -4.277432
atom: Total number of Sankey-type orbitals: 13

atm_pop: Valence configuration (for local Pseudopot. screening):
 2s( 2.00)                                                            
 2p( 2.00)                                                            
Vna: chval, zval:    4.00000   4.00000

Vna:  Cut-off radius for the neutral-atom potential:   4.870301

atom: _________________________________________________________________________

prinput: Basis input ----------------------------------------------------------

PAO.BasisType split     

%block ChemicalSpeciesLabel
    1    1 H                       # Species index, atomic number, species label
    2    6 C                       # Species index, atomic number, species label
%endblock ChemicalSpeciesLabel

%block PAO.Basis                 # Define Basis set
H                     1                    # Species label, number of l-shells
 n=1   0   2 P   1                   # n, l, Nzeta, Polarization, NzetaPol
   4.709      3.760   
   1.000      1.000   
C                     2                    # Species label, number of l-shells
 n=2   0   2                         # n, l, Nzeta 
   4.088      3.347   
   1.000      1.000   
 n=2   1   2 P   1                   # n, l, Nzeta, Polarization, NzetaPol
   4.870      3.475   
   1.000      1.000   
%endblock PAO.Basis

prinput: ----------------------------------------------------------------------

Dumping basis to NetCDF file H.ion.nc
Dumping basis to NetCDF file C.ion.nc
coor:   Atomic-coordinates input format  =     Cartesian coordinates
coor:                                          (in Angstroms)

siesta: Atomic coordinates (Bohr) and species
siesta:     14.17295   5.07014  47.24317  1        1
siesta:     14.17295   0.30425  47.24317  1        2
siesta:     31.73643   0.30425  47.24317  1        3
siesta:     31.73643   5.07014  47.24317  1        4
siesta:     18.30033   0.00000  47.24317  2        5
siesta:     15.97316   1.34360  47.24317  2        6
siesta:     15.97316   4.03079  47.24317  2        7
siesta:     18.30033   5.37438  47.24317  2        8
siesta:     22.95469   0.00000  47.24317  2        9
siesta:     20.62751   1.34360  47.24317  2       10
siesta:     20.62751   4.03079  47.24317  2       11
siesta:     22.95469   5.37438  47.24317  2       12
siesta:     27.60904   0.00000  47.24317  2       13
siesta:     25.28186   1.34360  47.24317  2       14
siesta:     25.28186   4.03079  47.24317  2       15
siesta:     27.60904   5.37438  47.24317  2       16
siesta:     29.93622   1.34360  47.24317  2       17
siesta:     29.93622   4.03079  47.24317  2       18

siesta: System type = chain     

initatomlists: Number of atoms, orbitals, and projectors:     18   202   260

siesta: ******************** Simulation parameters ****************************
siesta:
siesta: The following are some of the parameters of the simulation.
siesta: A complete list of the parameters used, including default values,
siesta: can be found in file out.fdf
siesta:
redata: Spin configuration                          = none
redata: Number of spin components                   = 1
redata: Time-Reversal Symmetry                      = T
redata: Spin-spiral                                 = F
redata: Long output                                 =   F
redata: Number of Atomic Species                    =        2
redata: Charge density info will appear in .RHO file
redata: Write Mulliken Pop.                         = NO
redata: Mesh Cutoff                                 =   100.0000 Ry
redata: Net charge of the system                    =     0.0000 |e|
redata: Min. number of SCF Iter                     =        0
redata: Max. number of SCF Iter                     =      200
redata: SCF mix quantity                            = Hamiltonian
redata: Mix DM or H after convergence               =   F
redata: Recompute H after scf cycle                 =   F
redata: Mix DM in first SCF step                    =   T
redata: Write Pulay info on disk                    =   F
redata: New DM Mixing Weight                        =     0.2500
redata: New DM Occupancy tolerance                  = 0.000000000001
redata: No kicks to SCF
redata: DM Mixing Weight for Kicks                  =     0.5000
redata: Require Harris convergence for SCF          =   F
redata: Harris energy tolerance for SCF             =     0.000100 eV
redata: Require DM convergence for SCF              =   T
redata: DM tolerance for SCF                        =     0.0001
redata: Require EDM convergence for SCF             =   F
redata: EDM tolerance for SCF                       =     0.001000 eV
redata: Require H convergence for SCF               =   T
redata: Hamiltonian tolerance for SCF               =     0.001000 eV
redata: Require (free) Energy convergence for SCF   =   F
redata: (free) Energy tolerance for SCF             =     0.000100 eV
redata: Using Saved Data (generic)                  =   F
redata: Use continuation files for DM               =   F
redata: Neglect nonoverlap interactions             =   F
redata: Method of Calculation                       = Diagonalization
redata: Divide and Conquer                          =   T
redata: Electronic Temperature                      =   299.9869 K
redata: Fix the spin of the system                  =   F
redata: Dynamics option                             = CG coord. optimization
redata: Variable cell                               =   F
redata: Use continuation files for CG               =   F
redata: Max atomic displ per move                   =     0.1058 Ang
redata: Maximum number of CG moves                  =     1000
redata: Force tolerance                             =     0.0400 eV/Ang
mix.SCF: Pulay mixing                            = Pulay
mix.SCF:    Variant                              = stable
mix.SCF:    History steps                        = 5
mix.SCF:    Linear mixing weight                 =     0.250000
mix.SCF:    Mixing weight                        =     0.250000
mix.SCF:    SVD condition                        = 0.1000E-07
redata: ***********************************************************************

%block SCF.Mixers
  Pulay
%endblock SCF.Mixers

%block SCF.Mixer.Pulay
  # Mixing method
  method pulay
  variant stable

  # Mixing options
  weight 0.2500
  weight.linear 0.2500
  history 5
%endblock SCF.Mixer.Pulay
 
DM_history_depth set to one: no extrapolation allowed by default for geometry relaxation
Size of DM history Fstack: 1
Total number of electrons:    60.000000
Total ionic charge:    60.000000

* ProcessorY, Blocksize:    2  24


* Orbital distribution balance (max,min):    34    24

 Kpoints in:           41 . Kpoints trimmed:           41

siesta: k-grid: Number of k-points =    41
siesta: k-grid: Cutoff (effective) =    25.000 Ang
siesta: k-grid: Supercell and displacements
siesta: k-grid:    1   0   0      0.000
siesta: k-grid:    0  81   0      0.000
siesta: k-grid:    0   0   1      0.000

superc: Internal auxiliary supercell:     1 x     5 x     1  =       5
superc: Number of atoms, orbitals, and projectors:     90   1010   1300
 

                     ====================================
                        Begin CG opt. move =      0
                     ====================================

superc: Internal auxiliary supercell:     1 x     5 x     1  =       5
superc: Number of atoms, orbitals, and projectors:     90   1010   1300

outcell: Unit cell vectors (Ang):
       50.000000    0.000000    0.000000
        0.000000    4.266000    0.000000
        0.000000    0.000000   50.000000

outcell: Cell vector modules (Ang)   :   50.000000    4.266000   50.000000
outcell: Cell angles (23,13,12) (deg):     90.0000     90.0000     90.0000
outcell: Cell volume (Ang**3)        :  10665.0000
<dSpData1D:S at geom step 0
  <sparsity:sparsity for geom step 0
    nrows_g=202 nrows=34 sparsity=.3291 nnzs=13428, refcount: 7>
  <dData1D:(new from dSpData1D) n=13428, refcount: 1>
refcount: 1>
new_DM -- step:     1
Initializing Density Matrix...
DM filled with atomic data:
<dSpData2D:DM initialized from atoms
  <sparsity:sparsity for geom step 0
    nrows_g=202 nrows=34 sparsity=.3291 nnzs=13428, refcount: 8>
  <dData2D:DM n=13428 m=1, refcount: 1>
refcount: 1>
 
No. of atoms with KB's overlaping orbs in proc 0. Max # of overlaps:      38     217
New grid distribution:   1
           1       1:  160    1:    8    1:   40
           2       1:  160    1:    8   41:   80
           3       1:  160    1:    8   81:  120
           4       1:  160    1:    8  121:  160
           5       1:  160    9:   15    1:   40
           6       1:  160    9:   15   41:   80
           7       1:  160    9:   15   81:  120
           8       1:  160    9:   15  121:  160

InitMesh: MESH =   320 x    30 x   320 =     3072000
InitMesh: (bp) =   160 x    15 x   160 =      384000
InitMesh: Mesh cutoff (required, used) =   100.000   113.204 Ry
ExtMesh (bp) on 0 =   196 x    48 x    76 =      715008
New grid distribution:   2
           1      40:  160    1:   15    1:   78
           2       1:   39    1:   15   79:   80
           3      40:  160    1:   15   81:   82
           4       1:   39    1:   15   83:  160
           5       1:   39    1:   15    1:   78
           6      40:  160    1:   15   79:   80
           7       1:   39    1:   15   81:   82
           8      40:  160    1:   15   83:  160
New grid distribution:   3
           1      41:  160    1:   15    1:   76
           2       1:   40    1:   15   77:   80
           3      41:  160    1:   15   81:   84
           4       1:   40    1:   15   85:  160
           5       1:   40    1:   15    1:   76
           6      41:  160    1:   15   77:   80
           7       1:   40    1:   15   81:   84
           8      41:  160    1:   15   85:  160
Setting up quadratic distribution...
ExtMesh (bp) on 0 =   157 x    55 x   114 =      984390
PhiOnMesh: Number of (b)points on node 0 =               141570
PhiOnMesh: nlist on node 0 =                69485

stepf: Fermi-Dirac step function

siesta: Program's energy decomposition (eV):
siesta: Ebs     =      -664.996272
siesta: Eions   =      2900.553583
siesta: Ena     =       293.541782
siesta: Ekin    =      1671.445830
siesta: Enl     =      -530.239122
siesta: Eso     =         0.000000
siesta: Eldau   =         0.000000
siesta: DEna    =       -54.842139
siesta: DUscf   =         6.220939
siesta: DUext   =         0.000000
siesta: Exc     =      -712.853788
siesta: eta*DQ  =         0.000000
siesta: Emadel  =         0.000000
siesta: Emeta   =         0.000000
siesta: Emolmec =         0.000000
siesta: Ekinion =         0.000000
siesta: Eharris =     -2239.266102
siesta: Etot    =     -2227.280081
siesta: FreeEng =     -2227.280081

        iscf     Eharris(eV)        E_KS(eV)     FreeEng(eV)     dDmax    Ef(eV) dHmax(eV)
   scf:    1    -2239.266102    -2227.280081    -2227.280081  1.925516 -4.985446  4.321311
timer: Routine,Calls,Time,% = IterSCF        1       2.355  63.94
   scf:    2    -2228.421754    -2227.910239    -2227.910239  0.033123 -4.330876  2.347268
   scf:    3    -2228.406206    -2228.219614    -2228.219614  0.052161 -3.130488  0.499561
   scf:    4    -2228.240497    -2228.231278    -2228.231278  0.003464 -3.134919  0.289362
   scf:    5    -2228.241470    -2228.237254    -2228.237254  0.004162 -3.101095  0.045108
   scf:    6    -2228.237563    -2228.237421    -2228.237421  0.000757 -3.092463  0.010230
   scf:    7    -2228.237474    -2228.237449    -2228.237449  0.000228 -3.093253  0.004493
   scf:    8    -2228.237465    -2228.237458    -2228.237458  0.000162 -3.093335  0.001360
   scf:    9    -2228.237460    -2228.237459    -2228.237459  0.000071 -3.093364  0.000766

SCF Convergence by DM+H criterion
max |DM_out - DM_in|         :     0.0000707343
max |H_out - H_in|      (eV) :     0.0007658258
SCF cycle converged after 9 iterations

Using DM_out to compute the final energy and forces
No. of atoms with KB's overlaping orbs in proc 0. Max # of overlaps:      38     217

siesta: E_KS(eV) =            -2228.2375

siesta: E_KS - E_eggbox =     -2228.2375

siesta: Atomic forces (eV/Ang):
----------------------------------------
   Tot   -0.131910    0.000000   -0.000000
----------------------------------------
   Max    2.001581
   Res    0.592646    sqrt( Sum f_i^2 / 3N )
----------------------------------------
   Max    2.001581    constrained

Stress-tensor-Voigt (kbar):       -1.05       -1.49        0.02        0.00        0.00       -0.00
(Free)E + p*V (eV/cell)    -2222.6439
Target enthalpy (eV/cell)    -2228.2375

                     ====================================
                        Begin CG opt. move =      1
                     ====================================

superc: Internal auxiliary supercell:     1 x     5 x     1  =       5
superc: Number of atoms, orbitals, and projectors:     90   1010   1300

outcell: Unit cell vectors (Ang):
       50.000000    0.000000    0.000000
        0.000000    4.266000    0.000000
        0.000000    0.000000   50.000000

outcell: Cell vector modules (Ang)   :   50.000000    4.266000   50.000000
outcell: Cell angles (23,13,12) (deg):     90.0000     90.0000     90.0000
outcell: Cell volume (Ang**3)        :  10665.0000
<dSpData1D:S at geom step 1
  <sparsity:sparsity for geom step 1
    nrows_g=202 nrows=34 sparsity=.3291 nnzs=13428, refcount: 7>
  <dData1D:(new from dSpData1D) n=13428, refcount: 1>
refcount: 1>
new_DM -- step:     2
Re-using DM from previous geometries...
Number of DMs in history: 1
 DM extrapolation coefficients: 
1   1.00000
New DM after history re-use:
<dSpData2D:SpM extrapolated using coords
  <sparsity:sparsity for geom step 1
    nrows_g=202 nrows=34 sparsity=.3291 nnzs=13428, refcount: 8>
  <dData2D:(temp array for extrapolation) n=13428 m=1, refcount: 1>
refcount: 1>
No. of atoms with KB's overlaping orbs in proc 0. Max # of overlaps:      38     217
New grid distribution:   1
           1       1:  160    1:    8    1:   40
           2       1:  160    1:    8   41:   80
           3       1:  160    1:    8   81:  120
           4       1:  160    1:    8  121:  160
           5       1:  160    9:   15    1:   40
           6       1:  160    9:   15   41:   80
           7       1:  160    9:   15   81:  120
           8       1:  160    9:   15  121:  160

InitMesh: MESH =   320 x    30 x   320 =     3072000
InitMesh: (bp) =   160 x    15 x   160 =      384000
InitMesh: Mesh cutoff (required, used) =   100.000   113.204 Ry
ExtMesh (bp) on 0 =   196 x    48 x    76 =      715008
New grid distribution:   2
           1      40:  160    1:   15    1:   78
           2       1:   39    1:   15   79:   80
           3      40:  160    1:   15   81:   82
           4       1:   39    1:   15   83:  160
           5       1:   39    1:   15    1:   78
           6      40:  160    1:   15   79:   80
           7       1:   39    1:   15   81:   82
           8      40:  160    1:   15   83:  160
New grid distribution:   3
           1      41:  160    1:   15    1:   76
           2       1:   40    1:   15   77:   80
           3      41:  160    1:   15   81:   84
           4       1:   40    1:   15   85:  160
           5       1:   40    1:   15    1:   76
           6      41:  160    1:   15   77:   80
           7       1:   40    1:   15   81:   84
           8      41:  160    1:   15   85:  160
Setting up quadratic distribution...
ExtMesh (bp) on 0 =   157 x    55 x   114 =      984390
PhiOnMesh: Number of (b)points on node 0 =               141570
PhiOnMesh: nlist on node 0 =                69467

        iscf     Eharris(eV)        E_KS(eV)     FreeEng(eV)     dDmax    Ef(eV) dHmax(eV)
   scf:    1    -2227.071713    -2227.811390    -2227.811390  0.057234 -3.332248  1.875824
   scf:    2    -2218.995793    -2225.289262    -2225.289262  0.090100 -2.875717  6.781388
   scf:    3    -2228.784448    -2228.138388    -2228.138388  0.067296 -3.490343  0.086842
   scf:    4    -2228.142149    -2228.140841    -2228.140841  0.001330 -3.488556  0.032674
   scf:    5    -2228.141172    -2228.141040    -2228.141040  0.000401 -3.491757  0.008832
   scf:    6    -2228.141073    -2228.141058    -2228.141058  0.000187 -3.489850  0.005204
   scf:    7    -2228.141066    -2228.141062    -2228.141062  0.000141 -3.488888  0.001033
   scf:    8    -2228.141063    -2228.141063    -2228.141063  0.000031 -3.488774  0.000746

SCF Convergence by DM+H criterion
max |DM_out - DM_in|         :     0.0000306860
max |H_out - H_in|      (eV) :     0.0007455352
SCF cycle converged after 8 iterations

Using DM_out to compute the final energy and forces
No. of atoms with KB's overlaping orbs in proc 0. Max # of overlaps:      38     217

siesta: E_KS(eV) =            -2228.1411

siesta: Atomic forces (eV/Ang):
----------------------------------------
   Tot   -0.282762    0.000000   -0.000000
----------------------------------------
   Max    3.728615
   Res    1.071691    sqrt( Sum f_i^2 / 3N )
----------------------------------------
   Max    3.728615    constrained

Stress-tensor-Voigt (kbar):       -0.61       -2.66        0.02       -0.00        0.00       -0.00
(Free)E + p*V (eV/cell)    -2220.9411
Target enthalpy (eV/cell)    -2228.1411

                     ====================================
                        Begin CG opt. move =      2
                     ====================================

superc: Internal auxiliary supercell:     1 x     5 x     1  =       5
superc: Number of atoms, orbitals, and projectors:     90   1010   1300

outcell: Unit cell vectors (Ang):
       50.000000    0.000000    0.000000
        0.000000    4.266000    0.000000
        0.000000    0.000000   50.000000

outcell: Cell vector modules (Ang)   :   50.000000    4.266000   50.000000
outcell: Cell angles (23,13,12) (deg):     90.0000     90.0000     90.0000
outcell: Cell volume (Ang**3)        :  10665.0000
<dSpData1D:S at geom step 2
  <sparsity:sparsity for geom step 2
    nrows_g=202 nrows=34 sparsity=.3291 nnzs=13428, refcount: 7>
  <dData1D:(new from dSpData1D) n=13428, refcount: 1>
refcount: 1>
new_DM -- step:     3
Re-using DM from previous geometries...
Number of DMs in history: 1
 DM extrapolation coefficients: 
1   1.00000
New DM after history re-use:
<dSpData2D:SpM extrapolated using coords
  <sparsity:sparsity for geom step 2
    nrows_g=202 nrows=34 sparsity=.3291 nnzs=13428, refcount: 8>
  <dData2D:(temp array for extrapolation) n=13428 m=1, refcount: 1>
refcount: 1>
No. of atoms with KB's overlaping orbs in proc 0. Max # of overlaps:      38     217
New grid distribution:   1
           1       1:  160    1:    8    1:   40
           2       1:  160    1:    8   41:   80
           3       1:  160    1:    8   81:  120
           4       1:  160    1:    8  121:  160
           5       1:  160    9:   15    1:   40
           6       1:  160    9:   15   41:   80
           7       1:  160    9:   15   81:  120
           8       1:  160    9:   15  121:  160

InitMesh: MESH =   320 x    30 x   320 =     3072000
InitMesh: (bp) =   160 x    15 x   160 =      384000
InitMesh: Mesh cutoff (required, used) =   100.000   113.204 Ry
ExtMesh (bp) on 0 =   196 x    48 x    76 =      715008
New grid distribution:   2
           1      40:  160    1:   15    1:   78
           2       1:   39    1:   15   79:   80
           3      40:  160    1:   15   81:   82
           4       1:   39    1:   15   83:  160
           5       1:   39    1:   15    1:   78
           6      40:  160    1:   15   79:   80
           7       1:   39    1:   15   81:   82
           8      40:  160    1:   15   83:  160
New grid distribution:   3
           1      41:  160    1:   15    1:   76
           2       1:   40    1:   15   77:   80
           3      41:  160    1:   15   81:   84
           4       1:   40    1:   15   85:  160
           5       1:   40    1:   15    1:   76
           6      41:  160    1:   15   77:   80
           7       1:   40    1:   15   81:   84
           8      41:  160    1:   15   85:  160
Setting up quadratic distribution...
ExtMesh (bp) on 0 =   157 x    55 x   114 =      984390
PhiOnMesh: Number of (b)points on node 0 =               141570
PhiOnMesh: nlist on node 0 =                69470

        iscf     Eharris(eV)        E_KS(eV)     FreeEng(eV)     dDmax    Ef(eV) dHmax(eV)
   scf:    1    -2227.907283    -2228.194279    -2228.194279  0.038315 -3.336244  1.271461
   scf:    2    -2224.101007    -2227.018140    -2227.018140  0.064368 -3.335474  4.660643
   scf:    3    -2228.641852    -2228.338649    -2228.338649  0.049105 -3.078512  0.053288
   scf:    4    -2228.340227    -2228.339641    -2228.339641  0.000626 -3.076491  0.019723
   scf:    5    -2228.339778    -2228.339724    -2228.339724  0.000248 -3.075347  0.005326
   scf:    6    -2228.339733    -2228.339729    -2228.339729  0.000172 -3.077770  0.002694
   scf:    7    -2228.339730    -2228.339730    -2228.339730  0.000022 -3.077268  0.000590

SCF Convergence by DM+H criterion
max |DM_out - DM_in|         :     0.0000220977
max |H_out - H_in|      (eV) :     0.0005898161
SCF cycle converged after 7 iterations

Using DM_out to compute the final energy and forces
No. of atoms with KB's overlaping orbs in proc 0. Max # of overlaps:      38     217

siesta: E_KS(eV) =            -2228.3397

siesta: Atomic forces (eV/Ang):
----------------------------------------
   Tot   -0.159095    0.000000   -0.000000
----------------------------------------
   Max    0.395565
   Res    0.182371    sqrt( Sum f_i^2 / 3N )
----------------------------------------
   Max    0.395565    constrained

Stress-tensor-Voigt (kbar):       -0.88       -1.84        0.02        0.00       -0.00       -0.00
(Free)E + p*V (eV/cell)    -2222.3698
Target enthalpy (eV/cell)    -2228.3397

cgvc: Finished line minimization    1.  Mean atomic displacement =    0.0180

                     ====================================
                        Begin CG opt. move =      3
                     ====================================

superc: Internal auxiliary supercell:     1 x     5 x     1  =       5
superc: Number of atoms, orbitals, and projectors:     90   1010   1300

outcell: Unit cell vectors (Ang):
       50.000000    0.000000    0.000000
        0.000000    4.266000    0.000000
        0.000000    0.000000   50.000000

outcell: Cell vector modules (Ang)   :   50.000000    4.266000   50.000000
outcell: Cell angles (23,13,12) (deg):     90.0000     90.0000     90.0000
outcell: Cell volume (Ang**3)        :  10665.0000
<dSpData1D:S at geom step 3
  <sparsity:sparsity for geom step 3
    nrows_g=202 nrows=34 sparsity=.3291 nnzs=13428, refcount: 7>
  <dData1D:(new from dSpData1D) n=13428, refcount: 1>
refcount: 1>
new_DM -- step:     4
Re-using DM from previous geometries...
Number of DMs in history: 1
 DM extrapolation coefficients: 
1   1.00000
New DM after history re-use:
<dSpData2D:SpM extrapolated using coords
  <sparsity:sparsity for geom step 3
    nrows_g=202 nrows=34 sparsity=.3291 nnzs=13428, refcount: 8>
  <dData2D:(temp array for extrapolation) n=13428 m=1, refcount: 1>
refcount: 1>
No. of atoms with KB's overlaping orbs in proc 0. Max # of overlaps:      38     217
New grid distribution:   1
           1       1:  160    1:    8    1:   40
           2       1:  160    1:    8   41:   80
           3       1:  160    1:    8   81:  120
           4       1:  160    1:    8  121:  160
           5       1:  160    9:   15    1:   40
           6       1:  160    9:   15   41:   80
           7       1:  160    9:   15   81:  120
           8       1:  160    9:   15  121:  160

InitMesh: MESH =   320 x    30 x   320 =     3072000
InitMesh: (bp) =   160 x    15 x   160 =      384000
InitMesh: Mesh cutoff (required, used) =   100.000   113.204 Ry
ExtMesh (bp) on 0 =   196 x    48 x    76 =      715008
New grid distribution:   2
           1      40:  160    1:   15    1:   78
           2       1:   39    1:   15   79:   80
           3      40:  160    1:   15   81:   82
           4       1:   39    1:   15   83:  160
           5       1:   39    1:   15    1:   78
           6      40:  160    1:   15   79:   80
           7       1:   39    1:   15   81:   82
           8      40:  160    1:   15   83:  160
New grid distribution:   3
           1      41:  160    1:   15    1:   76
           2       1:   40    1:   15   77:   80
           3      41:  160    1:   15   81:   84
           4       1:   40    1:   15   85:  160
           5       1:   40    1:   15    1:   76
           6      41:  160    1:   15   77:   80
           7       1:   40    1:   15   81:   84
           8      41:  160    1:   15   85:  160
Setting up quadratic distribution...
ExtMesh (bp) on 0 =   157 x    55 x   114 =      984390
PhiOnMesh: Number of (b)points on node 0 =               141570
PhiOnMesh: nlist on node 0 =                69452

        iscf     Eharris(eV)        E_KS(eV)     FreeEng(eV)     dDmax    Ef(eV) dHmax(eV)
   scf:    1    -2227.963514    -2228.232381    -2228.232381  0.017473 -3.328105  1.593119
   scf:    2    -2223.548767    -2226.863362    -2226.863362  0.065417 -2.813815  5.376424
   scf:    3    -2228.697183    -2228.366861    -2228.366861  0.049910 -3.060250  0.052909
   scf:    4    -2228.367156    -2228.367078    -2228.367078  0.000819 -3.043221  0.011704
   scf:    5    -2228.367098    -2228.367091    -2228.367091  0.000161 -3.042345  0.003602
   scf:    6    -2228.367093    -2228.367092    -2228.367092  0.000048 -3.041713  0.001184
   scf:    7    -2228.367093    -2228.367092    -2228.367092  0.000032 -3.041537  0.000506

SCF Convergence by DM+H criterion
max |DM_out - DM_in|         :     0.0000321698
max |H_out - H_in|      (eV) :     0.0005063558
SCF cycle converged after 7 iterations

Using DM_out to compute the final energy and forces
No. of atoms with KB's overlaping orbs in proc 0. Max # of overlaps:      38     217

siesta: E_KS(eV) =            -2228.3671

siesta: Atomic forces (eV/Ang):
----------------------------------------
   Tot   -0.320264    0.000000   -0.000000
----------------------------------------
   Max    0.363300
   Res    0.151135    sqrt( Sum f_i^2 / 3N )
----------------------------------------
   Max    0.363300    constrained

Stress-tensor-Voigt (kbar):       -0.93       -1.86        0.02       -0.00       -0.00        0.00
(Free)E + p*V (eV/cell)    -2222.2110
Target enthalpy (eV/cell)    -2228.3671

                     ====================================
                        Begin CG opt. move =      4
                     ====================================

superc: Internal auxiliary supercell:     1 x     5 x     1  =       5
superc: Number of atoms, orbitals, and projectors:     90   1010   1300

outcell: Unit cell vectors (Ang):
       50.000000    0.000000    0.000000
        0.000000    4.266000    0.000000
        0.000000    0.000000   50.000000

outcell: Cell vector modules (Ang)   :   50.000000    4.266000   50.000000
outcell: Cell angles (23,13,12) (deg):     90.0000     90.0000     90.0000
outcell: Cell volume (Ang**3)        :  10665.0000
<dSpData1D:S at geom step 4
  <sparsity:sparsity for geom step 4
    nrows_g=202 nrows=34 sparsity=.3154 nnzs=12868, refcount: 7>
  <dData1D:(new from dSpData1D) n=12868, refcount: 1>
refcount: 1>
new_DM -- step:     5
Re-using DM from previous geometries...
Number of DMs in history: 1
 DM extrapolation coefficients: 
1   1.00000
New DM after history re-use:
<dSpData2D:SpM extrapolated using coords
  <sparsity:sparsity for geom step 4
    nrows_g=202 nrows=34 sparsity=.3154 nnzs=12868, refcount: 8>
  <dData2D:(temp array for extrapolation) n=12868 m=1, refcount: 1>
refcount: 1>
No. of atoms with KB's overlaping orbs in proc 0. Max # of overlaps:      35     217
New grid distribution:   1
           1       1:  160    1:    8    1:   40
           2       1:  160    1:    8   41:   80
           3       1:  160    1:    8   81:  120
           4       1:  160    1:    8  121:  160
           5       1:  160    9:   15    1:   40
           6       1:  160    9:   15   41:   80
           7       1:  160    9:   15   81:  120
           8       1:  160    9:   15  121:  160

InitMesh: MESH =   320 x    30 x   320 =     3072000
InitMesh: (bp) =   160 x    15 x   160 =      384000
InitMesh: Mesh cutoff (required, used) =   100.000   113.204 Ry
ExtMesh (bp) on 0 =   196 x    48 x    76 =      715008
New grid distribution:   2
           1      40:  160    1:   15    1:   78
           2       1:   39    1:   15   79:   80
           3      40:  160    1:   15   81:   82
           4       1:   39    1:   15   83:  160
           5       1:   39    1:   15    1:   78
           6      40:  160    1:   15   79:   80
           7       1:   39    1:   15   81:   82
           8      40:  160    1:   15   83:  160
New grid distribution:   3
           1      41:  160    1:   15    1:   76
           2       1:   40    1:   15   77:   80
           3      41:  160    1:   15   81:   84
           4       1:   40    1:   15   85:  160
           5       1:   40    1:   15    1:   76
           6      41:  160    1:   15   77:   80
           7       1:   40    1:   15   81:   84
           8      41:  160    1:   15   85:  160
Setting up quadratic distribution...
ExtMesh (bp) on 0 =   157 x    55 x   114 =      984390
PhiOnMesh: Number of (b)points on node 0 =               141570
PhiOnMesh: nlist on node 0 =                69462

        iscf     Eharris(eV)        E_KS(eV)     FreeEng(eV)     dDmax    Ef(eV) dHmax(eV)
   scf:    1    -2227.194183    -2227.949289    -2227.949289  0.027603 -3.443433  2.540536
   scf:    2    -2215.311066    -2224.234809    -2224.234809  0.103182 -2.615283  8.776708
   scf:    3    -2229.149737    -2228.292851    -2228.292851  0.078850 -3.453552  0.110515
   scf:    4    -2228.293763    -2228.293621    -2228.293621  0.001592 -3.420326  0.026694
   scf:    5    -2228.293698    -2228.293669    -2228.293669  0.000216 -3.420250  0.007321
   scf:    6    -2228.293681    -2228.293677    -2228.293677  0.000149 -3.419131  0.002868
   scf:    7    -2228.293679    -2228.293678    -2228.293678  0.000050 -3.418687  0.000884

SCF Convergence by DM+H criterion
max |DM_out - DM_in|         :     0.0000497486
max |H_out - H_in|      (eV) :     0.0008835439
SCF cycle converged after 7 iterations

Using DM_out to compute the final energy and forces
No. of atoms with KB's overlaping orbs in proc 0. Max # of overlaps:      35     217

siesta: E_KS(eV) =            -2228.2937

siesta: Atomic forces (eV/Ang):
----------------------------------------
   Tot   -0.449428    0.000000   -0.000000
----------------------------------------
   Max    1.255803
   Res    0.509934    sqrt( Sum f_i^2 / 3N )
----------------------------------------
   Max    1.255803    constrained

Stress-tensor-Voigt (kbar):       -1.10       -1.93        0.02        0.00        0.00       -0.00
(Free)E + p*V (eV/cell)    -2221.6155
Target enthalpy (eV/cell)    -2228.2937

                     ====================================
                        Begin CG opt. move =      5
                     ====================================

superc: Internal auxiliary supercell:     1 x     5 x     1  =       5
superc: Number of atoms, orbitals, and projectors:     90   1010   1300

outcell: Unit cell vectors (Ang):
       50.000000    0.000000    0.000000
        0.000000    4.266000    0.000000
        0.000000    0.000000   50.000000

outcell: Cell vector modules (Ang)   :   50.000000    4.266000   50.000000
outcell: Cell angles (23,13,12) (deg):     90.0000     90.0000     90.0000
outcell: Cell volume (Ang**3)        :  10665.0000
<dSpData1D:S at geom step 5
  <sparsity:sparsity for geom step 5
    nrows_g=202 nrows=34 sparsity=.3291 nnzs=13428, refcount: 7>
  <dData1D:(new from dSpData1D) n=13428, refcount: 1>
refcount: 1>
new_DM -- step:     6
Re-using DM from previous geometries...
Number of DMs in history: 1
 DM extrapolation coefficients: 
1   1.00000
New DM after history re-use:
<dSpData2D:SpM extrapolated using coords
  <sparsity:sparsity for geom step 5
    nrows_g=202 nrows=34 sparsity=.3291 nnzs=13428, refcount: 8>
  <dData2D:(temp array for extrapolation) n=13428 m=1, refcount: 1>
refcount: 1>
No. of atoms with KB's overlaping orbs in proc 0. Max # of overlaps:      38     217
New grid distribution:   1
           1       1:  160    1:    8    1:   40
           2       1:  160    1:    8   41:   80
           3       1:  160    1:    8   81:  120
           4       1:  160    1:    8  121:  160
           5       1:  160    9:   15    1:   40
           6       1:  160    9:   15   41:   80
           7       1:  160    9:   15   81:  120
           8       1:  160    9:   15  121:  160

InitMesh: MESH =   320 x    30 x   320 =     3072000
InitMesh: (bp) =   160 x    15 x   160 =      384000
InitMesh: Mesh cutoff (required, used) =   100.000   113.204 Ry
ExtMesh (bp) on 0 =   196 x    48 x    76 =      715008
New grid distribution:   2
           1      40:  160    1:   15    1:   78
           2       1:   39    1:   15   79:   80
           3      40:  160    1:   15   81:   82
           4       1:   39    1:   15   83:  160
           5       1:   39    1:   15    1:   78
           6      40:  160    1:   15   79:   80
           7       1:   39    1:   15   81:   82
           8      40:  160    1:   15   83:  160
New grid distribution:   3
           1      41:  160    1:   15    1:   76
           2       1:   40    1:   15   77:   80
           3      41:  160    1:   15   81:   84
           4       1:   40    1:   15   85:  160
           5       1:   40    1:   15    1:   76
           6      41:  160    1:   15   77:   80
           7       1:   40    1:   15   81:   84
           8      41:  160    1:   15   85:  160
Setting up quadratic distribution...
ExtMesh (bp) on 0 =   157 x    55 x   114 =      984390
PhiOnMesh: Number of (b)points on node 0 =               141570
PhiOnMesh: nlist on node 0 =                69451

        iscf     Eharris(eV)        E_KS(eV)     FreeEng(eV)     dDmax    Ef(eV) dHmax(eV)
   scf:    1    -2227.242099    -2228.026348    -2228.026348  0.028134 -3.050419  2.529877
   scf:    2    -2215.938449    -2224.484174    -2224.484174  0.106792 -3.596352  8.635293
   scf:    3    -2229.212923    -2228.366493    -2228.366493  0.082441 -3.010095  0.090607
   scf:    4    -2228.367234    -2228.367056    -2228.367056  0.001323 -3.038446  0.019200
   scf:    5    -2228.367106    -2228.367089    -2228.367089  0.000252 -3.039518  0.005842
   scf:    6    -2228.367095    -2228.367092    -2228.367092  0.000084 -3.040620  0.001972
   scf:    7    -2228.367094    -2228.367093    -2228.367093  0.000043 -3.040935  0.000720

SCF Convergence by DM+H criterion
max |DM_out - DM_in|         :     0.0000432143
max |H_out - H_in|      (eV) :     0.0007202375
SCF cycle converged after 7 iterations

Using DM_out to compute the final energy and forces
No. of atoms with KB's overlaping orbs in proc 0. Max # of overlaps:      38     217

siesta: E_KS(eV) =            -2228.3671

siesta: Atomic forces (eV/Ang):
----------------------------------------
   Tot   -0.321315    0.000000   -0.000000
----------------------------------------
   Max    0.366179
   Res    0.151907    sqrt( Sum f_i^2 / 3N )
----------------------------------------
   Max    0.366179    constrained

Stress-tensor-Voigt (kbar):       -0.93       -1.86        0.02       -0.00       -0.00        0.00
(Free)E + p*V (eV/cell)    -2222.2163
Target enthalpy (eV/cell)    -2228.3671

cgvc: Finished line minimization    2.  Mean atomic displacement =    0.0181

                     ====================================
                        Begin CG opt. move =      6
                     ====================================

superc: Internal auxiliary supercell:     1 x     5 x     1  =       5
superc: Number of atoms, orbitals, and projectors:     90   1010   1300

outcell: Unit cell vectors (Ang):
       50.000000    0.000000    0.000000
        0.000000    4.266000    0.000000
        0.000000    0.000000   50.000000

outcell: Cell vector modules (Ang)   :   50.000000    4.266000   50.000000
outcell: Cell angles (23,13,12) (deg):     90.0000     90.0000     90.0000
outcell: Cell volume (Ang**3)        :  10665.0000
<dSpData1D:S at geom step 6
  <sparsity:sparsity for geom step 6
    nrows_g=202 nrows=34 sparsity=.3291 nnzs=13428, refcount: 7>
  <dData1D:(new from dSpData1D) n=13428, refcount: 1>
refcount: 1>
new_DM -- step:     7
Re-using DM from previous geometries...
Number of DMs in history: 1
 DM extrapolation coefficients: 
1   1.00000
New DM after history re-use:
<dSpData2D:SpM extrapolated using coords
  <sparsity:sparsity for geom step 6
    nrows_g=202 nrows=34 sparsity=.3291 nnzs=13428, refcount: 8>
  <dData2D:(temp array for extrapolation) n=13428 m=1, refcount: 1>
refcount: 1>
No. of atoms with KB's overlaping orbs in proc 0. Max # of overlaps:      38     217
New grid distribution:   1
           1       1:  160    1:    8    1:   40
           2       1:  160    1:    8   41:   80
           3       1:  160    1:    8   81:  120
           4       1:  160    1:    8  121:  160
           5       1:  160    9:   15    1:   40
           6       1:  160    9:   15   41:   80
           7       1:  160    9:   15   81:  120
           8       1:  160    9:   15  121:  160

InitMesh: MESH =   320 x    30 x   320 =     3072000
InitMesh: (bp) =   160 x    15 x   160 =      384000
InitMesh: Mesh cutoff (required, used) =   100.000   113.204 Ry
ExtMesh (bp) on 0 =   196 x    48 x    76 =      715008
New grid distribution:   2
           1      40:  160    1:   15    1:   78
           2       1:   39    1:   15   79:   80
           3      40:  160    1:   15   81:   82
           4       1:   39    1:   15   83:  160
           5       1:   39    1:   15    1:   78
           6      40:  160    1:   15   79:   80
           7       1:   39    1:   15   81:   82
           8      40:  160    1:   15   83:  160
New grid distribution:   3
           1      41:  160    1:   15    1:   76
           2       1:   40    1:   15   77:   80
           3      41:  160    1:   15   81:   84
           4       1:   40    1:   15   85:  160
           5       1:   40    1:   15    1:   76
           6      41:  160    1:   15   77:   80
           7       1:   40    1:   15   81:   84
           8      41:  160    1:   15   85:  160
Setting up quadratic distribution...
ExtMesh (bp) on 0 =   157 x    55 x   114 =      984390
PhiOnMesh: Number of (b)points on node 0 =               141570
PhiOnMesh: nlist on node 0 =                69459

        iscf     Eharris(eV)        E_KS(eV)     FreeEng(eV)     dDmax    Ef(eV) dHmax(eV)
   scf:    1    -2228.184815    -2228.295830    -2228.295830  0.015323 -3.161406  1.262506
   scf:    2    -2225.523382    -2227.483906    -2227.483906  0.046216 -3.050782  4.356353
   scf:    3    -2228.572416    -2228.372892    -2228.372892  0.035446 -3.446325  0.020353
   scf:    4    -2228.373038    -2228.372984    -2228.372984  0.000253 -3.448014  0.007501
   scf:    5    -2228.372997    -2228.372991    -2228.372991  0.000081 -3.448737  0.002247
   scf:    6    -2228.372994    -2228.372993    -2228.372993  0.000042 -3.448449  0.001149
   scf:    7    -2228.372993    -2228.372993    -2228.372993  0.000036 -3.448187  0.000248

SCF Convergence by DM+H criterion
max |DM_out - DM_in|         :     0.0000364546
max |H_out - H_in|      (eV) :     0.0002477148
SCF cycle converged after 7 iterations

Using DM_out to compute the final energy and forces
No. of atoms with KB's overlaping orbs in proc 0. Max # of overlaps:      38     217

siesta: E_KS(eV) =            -2228.3730

siesta: Atomic forces (eV/Ang):
----------------------------------------
   Tot   -0.406165    0.000000   -0.000000
----------------------------------------
   Max    0.818596
   Res    0.245118    sqrt( Sum f_i^2 / 3N )
----------------------------------------
   Max    0.818596    constrained

Stress-tensor-Voigt (kbar):       -0.64       -2.17        0.02       -0.00       -0.00        0.00
(Free)E + p*V (eV/cell)    -2222.1665
Target enthalpy (eV/cell)    -2228.3730

                     ====================================
                        Begin CG opt. move =      7
                     ====================================

superc: Internal auxiliary supercell:     1 x     5 x     1  =       5
superc: Number of atoms, orbitals, and projectors:     90   1010   1300

outcell: Unit cell vectors (Ang):
       50.000000    0.000000    0.000000
        0.000000    4.266000    0.000000
        0.000000    0.000000   50.000000

outcell: Cell vector modules (Ang)   :   50.000000    4.266000   50.000000
outcell: Cell angles (23,13,12) (deg):     90.0000     90.0000     90.0000
outcell: Cell volume (Ang**3)        :  10665.0000
<dSpData1D:S at geom step 7
  <sparsity:sparsity for geom step 7
    nrows_g=202 nrows=34 sparsity=.3291 nnzs=13428, refcount: 7>
  <dData1D:(new from dSpData1D) n=13428, refcount: 1>
refcount: 1>
new_DM -- step:     8
Re-using DM from previous geometries...
Number of DMs in history: 1
 DM extrapolation coefficients: 
1   1.00000
New DM after history re-use:
<dSpData2D:SpM extrapolated using coords
  <sparsity:sparsity for geom step 7
    nrows_g=202 nrows=34 sparsity=.3291 nnzs=13428, refcount: 8>
  <dData2D:(temp array for extrapolation) n=13428 m=1, refcount: 1>
refcount: 1>
No. of atoms with KB's overlaping orbs in proc 0. Max # of overlaps:      38     217
New grid distribution:   1
           1       1:  160    1:    8    1:   40
           2       1:  160    1:    8   41:   80
           3       1:  160    1:    8   81:  120
           4       1:  160    1:    8  121:  160
           5       1:  160    9:   15    1:   40
           6       1:  160    9:   15   41:   80
           7       1:  160    9:   15   81:  120
           8       1:  160    9:   15  121:  160

InitMesh: MESH =   320 x    30 x   320 =     3072000
InitMesh: (bp) =   160 x    15 x   160 =      384000
InitMesh: Mesh cutoff (required, used) =   100.000   113.204 Ry
ExtMesh (bp) on 0 =   196 x    48 x    76 =      715008
New grid distribution:   2
           1      40:  160    1:   15    1:   78
           2       1:   39    1:   15   79:   80
           3      40:  160    1:   15   81:   82
           4       1:   39    1:   15   83:  160
           5       1:   39    1:   15    1:   78
           6      40:  160    1:   15   79:   80
           7       1:   39    1:   15   81:   82
           8      40:  160    1:   15   83:  160
New grid distribution:   3
           1      41:  160    1:   15    1:   76
           2       1:   40    1:   15   77:   80
           3      41:  160    1:   15   81:   84
           4       1:   40    1:   15   85:  160
           5       1:   40    1:   15    1:   76
           6      41:  160    1:   15   77:   80
           7       1:   40    1:   15   81:   84
           8      41:  160    1:   15   85:  160
Setting up quadratic distribution...
ExtMesh (bp) on 0 =   157 x    55 x   114 =      984390
PhiOnMesh: Number of (b)points on node 0 =               141570
PhiOnMesh: nlist on node 0 =                69417

        iscf     Eharris(eV)        E_KS(eV)     FreeEng(eV)     dDmax    Ef(eV) dHmax(eV)
   scf:    1    -2228.313112    -2228.365105    -2228.365105  0.006334 -3.401565  0.519065
   scf:    2    -2227.902012    -2228.229677    -2228.229677  0.019409 -3.243841  1.785832
   scf:    3    -2228.411845    -2228.378122    -2228.378122  0.014981 -3.458118  0.009689
   scf:    4    -2228.378147    -2228.378137    -2228.378137  0.000093 -3.456893  0.002329
   scf:    5    -2228.378139    -2228.378138    -2228.378138  0.000031 -3.456899  0.001035
   scf:    6    -2228.378139    -2228.378139    -2228.378139  0.000024 -3.457005  0.000302

SCF Convergence by DM+H criterion
max |DM_out - DM_in|         :     0.0000235565
max |H_out - H_in|      (eV) :     0.0003022956
SCF cycle converged after 6 iterations

Using DM_out to compute the final energy and forces
No. of atoms with KB's overlaping orbs in proc 0. Max # of overlaps:      38     217

siesta: E_KS(eV) =            -2228.3781

siesta: Atomic forces (eV/Ang):
----------------------------------------
   Tot   -0.379365    0.000000   -0.000000
----------------------------------------
   Max    0.355031
   Res    0.127146    sqrt( Sum f_i^2 / 3N )
----------------------------------------
   Max    0.355031    constrained

Stress-tensor-Voigt (kbar):       -0.77       -2.04        0.02       -0.00       -0.00        0.00
(Free)E + p*V (eV/cell)    -2222.1939
Target enthalpy (eV/cell)    -2228.3781

cgvc: Finished line minimization    3.  Mean atomic displacement =    0.0107

                     ====================================
                        Begin CG opt. move =      8
                     ====================================

superc: Internal auxiliary supercell:     1 x     5 x     1  =       5
superc: Number of atoms, orbitals, and projectors:     90   1010   1300

outcell: Unit cell vectors (Ang):
       50.000000    0.000000    0.000000
        0.000000    4.266000    0.000000
        0.000000    0.000000   50.000000

outcell: Cell vector modules (Ang)   :   50.000000    4.266000   50.000000
outcell: Cell angles (23,13,12) (deg):     90.0000     90.0000     90.0000
outcell: Cell volume (Ang**3)        :  10665.0000
<dSpData1D:S at geom step 8
  <sparsity:sparsity for geom step 8
    nrows_g=202 nrows=34 sparsity=.3154 nnzs=12868, refcount: 7>
  <dData1D:(new from dSpData1D) n=12868, refcount: 1>
refcount: 1>
new_DM -- step:     9
Re-using DM from previous geometries...
Number of DMs in history: 1
 DM extrapolation coefficients: 
1   1.00000
New DM after history re-use:
<dSpData2D:SpM extrapolated using coords
  <sparsity:sparsity for geom step 8
    nrows_g=202 nrows=34 sparsity=.3154 nnzs=12868, refcount: 8>
  <dData2D:(temp array for extrapolation) n=12868 m=1, refcount: 1>
refcount: 1>
No. of atoms with KB's overlaping orbs in proc 0. Max # of overlaps:      35     217
New grid distribution:   1
           1       1:  160    1:    8    1:   40
           2       1:  160    1:    8   41:   80
           3       1:  160    1:    8   81:  120
           4       1:  160    1:    8  121:  160
           5       1:  160    9:   15    1:   40
           6       1:  160    9:   15   41:   80
           7       1:  160    9:   15   81:  120
           8       1:  160    9:   15  121:  160

InitMesh: MESH =   320 x    30 x   320 =     3072000
InitMesh: (bp) =   160 x    15 x   160 =      384000
InitMesh: Mesh cutoff (required, used) =   100.000   113.204 Ry
ExtMesh (bp) on 0 =   196 x    48 x    76 =      715008
New grid distribution:   2
           1      40:  160    1:   15    1:   78
           2       1:   39    1:   15   79:   80
           3      40:  160    1:   15   81:   82
           4       1:   39    1:   15   83:  160
           5       1:   39    1:   15    1:   78
           6      40:  160    1:   15   79:   80
           7       1:   39    1:   15   81:   82
           8      40:  160    1:   15   83:  160
New grid distribution:   3
           1      41:  160    1:   15    1:   76
           2       1:   40    1:   15   77:   80
           3      41:  160    1:   15   81:   84
           4       1:   40    1:   15   85:  160
           5       1:   40    1:   15    1:   76
           6      41:  160    1:   15   77:   80
           7       1:   40    1:   15   81:   84
           8      41:  160    1:   15   85:  160
Setting up quadratic distribution...
ExtMesh (bp) on 0 =   157 x    55 x   114 =      984390
PhiOnMesh: Number of (b)points on node 0 =               141570
PhiOnMesh: nlist on node 0 =                69407

        iscf     Eharris(eV)        E_KS(eV)     FreeEng(eV)     dDmax    Ef(eV) dHmax(eV)
   scf:    1    -2228.441910    -2228.384345    -2228.384345  0.005167 -3.041750  0.316875
   scf:    2    -2228.225343    -2228.338554    -2228.338554  0.009511 -3.372547  1.030884
   scf:    3    -2228.401625    -2228.389718    -2228.389718  0.007264 -3.449896  0.010072
   scf:    4    -2228.389734    -2228.389729    -2228.389729  0.000110 -3.450950  0.001494
   scf:    5    -2228.389731    -2228.389730    -2228.389730  0.000048 -3.451095  0.000658

SCF Convergence by DM+H criterion
max |DM_out - DM_in|         :     0.0000484849
max |H_out - H_in|      (eV) :     0.0006583513
SCF cycle converged after 5 iterations

Using DM_out to compute the final energy and forces
No. of atoms with KB's overlaping orbs in proc 0. Max # of overlaps:      35     217

siesta: E_KS(eV) =            -2228.3897

siesta: Atomic forces (eV/Ang):
----------------------------------------
   Tot   -0.387007    0.000000   -0.000000
----------------------------------------
   Max    0.220709
   Res    0.089109    sqrt( Sum f_i^2 / 3N )
----------------------------------------
   Max    0.220709    constrained

Stress-tensor-Voigt (kbar):       -0.66       -1.99        0.02       -0.00       -0.00       -0.00
(Free)E + p*V (eV/cell)    -2222.5655
Target enthalpy (eV/cell)    -2228.3897

                     ====================================
                        Begin CG opt. move =      9
                     ====================================

superc: Internal auxiliary supercell:     1 x     5 x     1  =       5
superc: Number of atoms, orbitals, and projectors:     90   1010   1300

outcell: Unit cell vectors (Ang):
       50.000000    0.000000    0.000000
        0.000000    4.266000    0.000000
        0.000000    0.000000   50.000000

outcell: Cell vector modules (Ang)   :   50.000000    4.266000   50.000000
outcell: Cell angles (23,13,12) (deg):     90.0000     90.0000     90.0000
outcell: Cell volume (Ang**3)        :  10665.0000
<dSpData1D:S at geom step 9
  <sparsity:sparsity for geom step 9
    nrows_g=202 nrows=34 sparsity=.3154 nnzs=12868, refcount: 7>
  <dData1D:(new from dSpData1D) n=12868, refcount: 1>
refcount: 1>
new_DM -- step:    10
Re-using DM from previous geometries...
Number of DMs in history: 1
 DM extrapolation coefficients: 
1   1.00000
New DM after history re-use:
<dSpData2D:SpM extrapolated using coords
  <sparsity:sparsity for geom step 9
    nrows_g=202 nrows=34 sparsity=.3154 nnzs=12868, refcount: 8>
  <dData2D:(temp array for extrapolation) n=12868 m=1, refcount: 1>
refcount: 1>
No. of atoms with KB's overlaping orbs in proc 0. Max # of overlaps:      35     217
New grid distribution:   1
           1       1:  160    1:    8    1:   40
           2       1:  160    1:    8   41:   80
           3       1:  160    1:    8   81:  120
           4       1:  160    1:    8  121:  160
           5       1:  160    9:   15    1:   40
           6       1:  160    9:   15   41:   80
           7       1:  160    9:   15   81:  120
           8       1:  160    9:   15  121:  160

InitMesh: MESH =   320 x    30 x   320 =     3072000
InitMesh: (bp) =   160 x    15 x   160 =      384000
InitMesh: Mesh cutoff (required, used) =   100.000   113.204 Ry
ExtMesh (bp) on 0 =   196 x    48 x    76 =      715008
New grid distribution:   2
           1      40:  160    1:   15    1:   78
           2       1:   39    1:   15   79:   80
           3      40:  160    1:   15   81:   82
           4       1:   39    1:   15   83:  160
           5       1:   39    1:   15    1:   78
           6      40:  160    1:   15   79:   80
           7       1:   39    1:   15   81:   82
           8      40:  160    1:   15   83:  160
New grid distribution:   3
           1      41:  160    1:   15    1:   76
           2       1:   40    1:   15   77:   80
           3      41:  160    1:   15   81:   84
           4       1:   40    1:   15   85:  160
           5       1:   40    1:   15    1:   76
           6      41:  160    1:   15   77:   80
           7       1:   40    1:   15   81:   84
           8      41:  160    1:   15   85:  160
Setting up quadratic distribution...
ExtMesh (bp) on 0 =   157 x    55 x   114 =      984390
PhiOnMesh: Number of (b)points on node 0 =               141570
PhiOnMesh: nlist on node 0 =                69438

        iscf     Eharris(eV)        E_KS(eV)     FreeEng(eV)     dDmax    Ef(eV) dHmax(eV)
   scf:    1    -2228.453140    -2228.378209    -2228.378209  0.008241 -3.039689  0.494828
   scf:    2    -2227.981161    -2228.263989    -2228.263989  0.015397 -3.334058  1.616345
   scf:    3    -2228.421551    -2228.391800    -2228.391800  0.011696 -3.438734  0.017187
   scf:    4    -2228.391840    -2228.391827    -2228.391827  0.000177 -3.440669  0.002342
   scf:    5    -2228.391832    -2228.391830    -2228.391830  0.000080 -3.441004  0.000940

SCF Convergence by DM+H criterion
max |DM_out - DM_in|         :     0.0000799741
max |H_out - H_in|      (eV) :     0.0009404041
SCF cycle converged after 5 iterations

Using DM_out to compute the final energy and forces
No. of atoms with KB's overlaping orbs in proc 0. Max # of overlaps:      35     217

siesta: E_KS(eV) =            -2228.3918

siesta: Atomic forces (eV/Ang):
----------------------------------------
   Tot   -0.397471    0.000000   -0.000000
----------------------------------------
   Max    0.379022
   Res    0.175303    sqrt( Sum f_i^2 / 3N )
----------------------------------------
   Max    0.379022    constrained

Stress-tensor-Voigt (kbar):       -0.51       -1.92        0.02       -0.00       -0.00       -0.00
(Free)E + p*V (eV/cell)    -2223.0557
Target enthalpy (eV/cell)    -2228.3918

                     ====================================
                        Begin CG opt. move =     10
                     ====================================

superc: Internal auxiliary supercell:     1 x     5 x     1  =       5
superc: Number of atoms, orbitals, and projectors:     90   1010   1300

outcell: Unit cell vectors (Ang):
       50.000000    0.000000    0.000000
        0.000000    4.266000    0.000000
        0.000000    0.000000   50.000000

outcell: Cell vector modules (Ang)   :   50.000000    4.266000   50.000000
outcell: Cell angles (23,13,12) (deg):     90.0000     90.0000     90.0000
outcell: Cell volume (Ang**3)        :  10665.0000
<dSpData1D:S at geom step 10
  <sparsity:sparsity for geom step 10
    nrows_g=202 nrows=34 sparsity=.3154 nnzs=12868, refcount: 7>
  <dData1D:(new from dSpData1D) n=12868, refcount: 1>
refcount: 1>
new_DM -- step:    11
Re-using DM from previous geometries...
Number of DMs in history: 1
 DM extrapolation coefficients: 
1   1.00000
New DM after history re-use:
<dSpData2D:SpM extrapolated using coords
  <sparsity:sparsity for geom step 10
    nrows_g=202 nrows=34 sparsity=.3154 nnzs=12868, refcount: 8>
  <dData2D:(temp array for extrapolation) n=12868 m=1, refcount: 1>
refcount: 1>
No. of atoms with KB's overlaping orbs in proc 0. Max # of overlaps:      35     217
New grid distribution:   1
           1       1:  160    1:    8    1:   40
           2       1:  160    1:    8   41:   80
           3       1:  160    1:    8   81:  120
           4       1:  160    1:    8  121:  160
           5       1:  160    9:   15    1:   40
           6       1:  160    9:   15   41:   80
           7       1:  160    9:   15   81:  120
           8       1:  160    9:   15  121:  160

InitMesh: MESH =   320 x    30 x   320 =     3072000
InitMesh: (bp) =   160 x    15 x   160 =      384000
InitMesh: Mesh cutoff (required, used) =   100.000   113.204 Ry
ExtMesh (bp) on 0 =   196 x    48 x    76 =      715008
New grid distribution:   2
           1      40:  160    1:   15    1:   78
           2       1:   39    1:   15   79:   80
           3      40:  160    1:   15   81:   82
           4       1:   39    1:   15   83:  160
           5       1:   39    1:   15    1:   78
           6      40:  160    1:   15   79:   80
           7       1:   39    1:   15   81:   82
           8      40:  160    1:   15   83:  160
New grid distribution:   3
           1      41:  160    1:   15    1:   76
           2       1:   40    1:   15   77:   80
           3      41:  160    1:   15   81:   84
           4       1:   40    1:   15   85:  160
           5       1:   40    1:   15    1:   76
           6      41:  160    1:   15   77:   80
           7       1:   40    1:   15   81:   84
           8      41:  160    1:   15   85:  160
Setting up quadratic distribution...
ExtMesh (bp) on 0 =   157 x    55 x   114 =      984390
PhiOnMesh: Number of (b)points on node 0 =               141570
PhiOnMesh: nlist on node 0 =                69402

        iscf     Eharris(eV)        E_KS(eV)     FreeEng(eV)     dDmax    Ef(eV) dHmax(eV)
   scf:    1    -2228.345693    -2228.391272    -2228.391272  0.003373 -3.435295  0.193999
   scf:    2    -2228.329643    -2228.373551    -2228.373551  0.006013 -3.067317  0.635151
   scf:    3    -2228.398015    -2228.393391    -2228.393391  0.004549 -3.446228  0.006879
   scf:    4    -2228.393397    -2228.393395    -2228.393395  0.000076 -3.445367  0.001139
   scf:    5    -2228.393396    -2228.393396    -2228.393396  0.000029 -3.445241  0.000550

SCF Convergence by DM+H criterion
max |DM_out - DM_in|         :     0.0000292310
max |H_out - H_in|      (eV) :     0.0005504323
SCF cycle converged after 5 iterations

Using DM_out to compute the final energy and forces
No. of atoms with KB's overlaping orbs in proc 0. Max # of overlaps:      35     217

siesta: E_KS(eV) =            -2228.3934

siesta: Atomic forces (eV/Ang):
----------------------------------------
   Tot   -0.405704    0.000000   -0.000000
----------------------------------------
   Max    0.303848
   Res    0.128394    sqrt( Sum f_i^2 / 3N )
----------------------------------------
   Max    0.303848    constrained

Stress-tensor-Voigt (kbar):       -0.56       -1.94        0.02       -0.00       -0.00        0.00
(Free)E + p*V (eV/cell)    -2222.8832
Target enthalpy (eV/cell)    -2228.3934

cgvc: Finished line minimization    4.  Mean atomic displacement =    0.0210

                     ====================================
                        Begin CG opt. move =     11
                     ====================================

superc: Internal auxiliary supercell:     1 x     5 x     1  =       5
superc: Number of atoms, orbitals, and projectors:     90   1010   1300

outcell: Unit cell vectors (Ang):
       50.000000    0.000000    0.000000
        0.000000    4.266000    0.000000
        0.000000    0.000000   50.000000

outcell: Cell vector modules (Ang)   :   50.000000    4.266000   50.000000
outcell: Cell angles (23,13,12) (deg):     90.0000     90.0000     90.0000
outcell: Cell volume (Ang**3)        :  10665.0000
<dSpData1D:S at geom step 11
  <sparsity:sparsity for geom step 11
    nrows_g=202 nrows=34 sparsity=.3154 nnzs=12868, refcount: 7>
  <dData1D:(new from dSpData1D) n=12868, refcount: 1>
refcount: 1>
new_DM -- step:    12
Re-using DM from previous geometries...
Number of DMs in history: 1
 DM extrapolation coefficients: 
1   1.00000
New DM after history re-use:
<dSpData2D:SpM extrapolated using coords
  <sparsity:sparsity for geom step 11
    nrows_g=202 nrows=34 sparsity=.3154 nnzs=12868, refcount: 8>
  <dData2D:(temp array for extrapolation) n=12868 m=1, refcount: 1>
refcount: 1>
No. of atoms with KB's overlaping orbs in proc 0. Max # of overlaps:      35     217
New grid distribution:   1
           1       1:  160    1:    8    1:   40
           2       1:  160    1:    8   41:   80
           3       1:  160    1:    8   81:  120
           4       1:  160    1:    8  121:  160
           5       1:  160    9:   15    1:   40
           6       1:  160    9:   15   41:   80
           7       1:  160    9:   15   81:  120
           8       1:  160    9:   15  121:  160

InitMesh: MESH =   320 x    30 x   320 =     3072000
InitMesh: (bp) =   160 x    15 x   160 =      384000
InitMesh: Mesh cutoff (required, used) =   100.000   113.204 Ry
ExtMesh (bp) on 0 =   196 x    48 x    76 =      715008
New grid distribution:   2
           1      40:  160    1:   15    1:   78
           2       1:   39    1:   15   79:   80
           3      40:  160    1:   15   81:   82
           4       1:   39    1:   15   83:  160
           5       1:   39    1:   15    1:   78
           6      40:  160    1:   15   79:   80
           7       1:   39    1:   15   81:   82
           8      40:  160    1:   15   83:  160
New grid distribution:   3
           1      41:  160    1:   15    1:   76
           2       1:   40    1:   15   77:   80
           3      41:  160    1:   15   81:   84
           4       1:   40    1:   15   85:  160
           5       1:   40    1:   15    1:   76
           6      41:  160    1:   15   77:   80
           7       1:   40    1:   15   81:   84
           8      41:  160    1:   15   85:  160
Setting up quadratic distribution...
ExtMesh (bp) on 0 =   157 x    55 x   114 =      984390
PhiOnMesh: Number of (b)points on node 0 =               141570
PhiOnMesh: nlist on node 0 =                69403

        iscf     Eharris(eV)        E_KS(eV)     FreeEng(eV)     dDmax    Ef(eV) dHmax(eV)
   scf:    1    -2228.580510    -2228.404964    -2228.404964  0.005203 -3.416916  0.231454
   scf:    2    -2228.296033    -2228.373957    -2228.373957  0.007984 -3.485511  0.794248
   scf:    3    -2228.417310    -2228.409191    -2228.409191  0.006089 -3.426802  0.011352
   scf:    4    -2228.409300    -2228.409254    -2228.409254  0.000194 -3.424918  0.003389
   scf:    5    -2228.409270    -2228.409263    -2228.409263  0.000090 -3.425023  0.001548
   scf:    6    -2228.409265    -2228.409264    -2228.409264  0.000036 -3.425162  0.000722

SCF Convergence by DM+H criterion
max |DM_out - DM_in|         :     0.0000364555
max |H_out - H_in|      (eV) :     0.0007217271
SCF cycle converged after 6 iterations

Using DM_out to compute the final energy and forces
No. of atoms with KB's overlaping orbs in proc 0. Max # of overlaps:      35     217

siesta: E_KS(eV) =            -2228.4093

siesta: Atomic forces (eV/Ang):
----------------------------------------
   Tot   -0.437491    0.000000   -0.000000
----------------------------------------
   Max    0.217684
   Res    0.076540    sqrt( Sum f_i^2 / 3N )
----------------------------------------
   Max    0.217684    constrained

Stress-tensor-Voigt (kbar):       -0.25       -1.91        0.02       -0.00        0.00        0.00
(Free)E + p*V (eV/cell)    -2223.6529
Target enthalpy (eV/cell)    -2228.4093

                     ====================================
                        Begin CG opt. move =     12
                     ====================================

superc: Internal auxiliary supercell:     1 x     5 x     1  =       5
superc: Number of atoms, orbitals, and projectors:     90   1010   1300

outcell: Unit cell vectors (Ang):
       50.000000    0.000000    0.000000
        0.000000    4.266000    0.000000
        0.000000    0.000000   50.000000

outcell: Cell vector modules (Ang)   :   50.000000    4.266000   50.000000
outcell: Cell angles (23,13,12) (deg):     90.0000     90.0000     90.0000
outcell: Cell volume (Ang**3)        :  10665.0000
<dSpData1D:S at geom step 12
  <sparsity:sparsity for geom step 12
    nrows_g=202 nrows=34 sparsity=.3154 nnzs=12868, refcount: 7>
  <dData1D:(new from dSpData1D) n=12868, refcount: 1>
refcount: 1>
new_DM -- step:    13
Re-using DM from previous geometries...
Number of DMs in history: 1
 DM extrapolation coefficients: 
1   1.00000
New DM after history re-use:
<dSpData2D:SpM extrapolated using coords
  <sparsity:sparsity for geom step 12
    nrows_g=202 nrows=34 sparsity=.3154 nnzs=12868, refcount: 8>
  <dData2D:(temp array for extrapolation) n=12868 m=1, refcount: 1>
refcount: 1>
Note: For starting DM, Qtot, Tr[D*S] =         60.00000000         59.93914595
No. of atoms with KB's overlaping orbs in proc 0. Max # of overlaps:      35     217
New grid distribution:   1
           1       1:  160    1:    8    1:   40
           2       1:  160    1:    8   41:   80
           3       1:  160    1:    8   81:  120
           4       1:  160    1:    8  121:  160
           5       1:  160    9:   15    1:   40
           6       1:  160    9:   15   41:   80
           7       1:  160    9:   15   81:  120
           8       1:  160    9:   15  121:  160

InitMesh: MESH =   320 x    30 x   320 =     3072000
InitMesh: (bp) =   160 x    15 x   160 =      384000
InitMesh: Mesh cutoff (required, used) =   100.000   113.204 Ry
ExtMesh (bp) on 0 =   196 x    48 x    76 =      715008
New grid distribution:   2
           1      40:  160    1:   15    1:   78
           2       1:   39    1:   15   79:   80
           3      40:  160    1:   15   81:   82
           4       1:   39    1:   15   83:  160
           5       1:   39    1:   15    1:   78
           6      40:  160    1:   15   79:   80
           7       1:   39    1:   15   81:   82
           8      40:  160    1:   15   83:  160
New grid distribution:   3
           1      41:  160    1:   15    1:   76
           2       1:   40    1:   15   77:   80
           3      41:  160    1:   15   81:   84
           4       1:   40    1:   15   85:  160
           5       1:   40    1:   15    1:   76
           6      41:  160    1:   15   77:   80
           7       1:   40    1:   15   81:   84
           8      41:  160    1:   15   85:  160
Setting up quadratic distribution...
ExtMesh (bp) on 0 =   157 x    55 x   114 =      984390
PhiOnMesh: Number of (b)points on node 0 =               141570
PhiOnMesh: nlist on node 0 =                69365

        iscf     Eharris(eV)        E_KS(eV)     FreeEng(eV)     dDmax    Ef(eV) dHmax(eV)
   scf:    1    -2228.635619    -2228.385311    -2228.385311  0.008374 -3.373084  0.416500
   scf:    2    -2228.047630    -2228.288462    -2228.288462  0.013816 -3.091539  1.429588
   scf:    3    -2228.422357    -2228.397445    -2228.397445  0.010547 -3.396631  0.016997
   scf:    4    -2228.397724    -2228.397605    -2228.397605  0.000318 -3.393966  0.005459
   scf:    5    -2228.397646    -2228.397628    -2228.397628  0.000143 -3.394273  0.002423
   scf:    6    -2228.397631    -2228.397630    -2228.397630  0.000056 -3.394506  0.001087
   scf:    7    -2228.397631    -2228.397630    -2228.397630  0.000032 -3.394702  0.000402

SCF Convergence by DM+H criterion
max |DM_out - DM_in|         :     0.0000315801
max |H_out - H_in|      (eV) :     0.0004019709
SCF cycle converged after 7 iterations

Using DM_out to compute the final energy and forces
No. of atoms with KB's overlaping orbs in proc 0. Max # of overlaps:      35     217

siesta: E_KS(eV) =            -2228.3976

siesta: Atomic forces (eV/Ang):
----------------------------------------
   Tot   -0.439888   -0.000000   -0.000000
----------------------------------------
   Max    0.519982
   Res    0.201792    sqrt( Sum f_i^2 / 3N )
----------------------------------------
   Max    0.519982    constrained

Stress-tensor-Voigt (kbar):        0.25       -1.90        0.02       -0.00        0.00        0.00
(Free)E + p*V (eV/cell)    -2224.8030
Target enthalpy (eV/cell)    -2228.3976

                     ====================================
                        Begin CG opt. move =     13
                     ====================================

superc: Internal auxiliary supercell:     1 x     5 x     1  =       5
superc: Number of atoms, orbitals, and projectors:     90   1010   1300

outcell: Unit cell vectors (Ang):
       50.000000    0.000000    0.000000
        0.000000    4.266000    0.000000
        0.000000    0.000000   50.000000

outcell: Cell vector modules (Ang)   :   50.000000    4.266000   50.000000
outcell: Cell angles (23,13,12) (deg):     90.0000     90.0000     90.0000
outcell: Cell volume (Ang**3)        :  10665.0000
<dSpData1D:S at geom step 13
  <sparsity:sparsity for geom step 13
    nrows_g=202 nrows=34 sparsity=.3154 nnzs=12868, refcount: 7>
  <dData1D:(new from dSpData1D) n=12868, refcount: 1>
refcount: 1>
new_DM -- step:    14
Re-using DM from previous geometries...
Number of DMs in history: 1
 DM extrapolation coefficients: 
1   1.00000
New DM after history re-use:
<dSpData2D:SpM extrapolated using coords
  <sparsity:sparsity for geom step 13
[...]
  <dData1D:(new from dSpData1D) n=12868, refcount: 1>
refcount: 1>
new_DM -- step:    37
Re-using DM from previous geometries...
Number of DMs in history: 1
 DM extrapolation coefficients: 
1   1.00000
New DM after history re-use:
<dSpData2D:SpM extrapolated using coords
  <sparsity:sparsity for geom step 36
    nrows_g=202 nrows=34 sparsity=.3154 nnzs=12868, refcount: 8>
  <dData2D:(temp array for extrapolation) n=12868 m=1, refcount: 1>
refcount: 1>
No. of atoms with KB's overlaping orbs in proc 0. Max # of overlaps:      35     217
New grid distribution:   1
           1       1:  160    1:    8    1:   40
           2       1:  160    1:    8   41:   80
           3       1:  160    1:    8   81:  120
           4       1:  160    1:    8  121:  160
           5       1:  160    9:   15    1:   40
           6       1:  160    9:   15   41:   80
           7       1:  160    9:   15   81:  120
           8       1:  160    9:   15  121:  160

InitMesh: MESH =   320 x    30 x   320 =     3072000
InitMesh: (bp) =   160 x    15 x   160 =      384000
InitMesh: Mesh cutoff (required, used) =   100.000   113.204 Ry
ExtMesh (bp) on 0 =   196 x    48 x    76 =      715008
New grid distribution:   2
           1      40:  160    1:   15    1:   78
           2       1:   39    1:   15   79:   80
           3      40:  160    1:   15   81:   82
           4       1:   39    1:   15   83:  160
           5       1:   39    1:   15    1:   78
           6      40:  160    1:   15   79:   80
           7       1:   39    1:   15   81:   82
           8      40:  160    1:   15   83:  160
New grid distribution:   3
           1      41:  160    1:   15    1:   76
           2       1:   40    1:   15   77:   80
           3      41:  160    1:   15   81:   84
           4       1:   40    1:   15   85:  160
           5       1:   40    1:   15    1:   76
           6      41:  160    1:   15   77:   80
           7       1:   40    1:   15   81:   84
           8      41:  160    1:   15   85:  160
Setting up quadratic distribution...
ExtMesh (bp) on 0 =   157 x    55 x   114 =      984390
PhiOnMesh: Number of (b)points on node 0 =               141570
PhiOnMesh: nlist on node 0 =                68997

        iscf     Eharris(eV)        E_KS(eV)     FreeEng(eV)     dDmax    Ef(eV) dHmax(eV)
   scf:    1    -2228.376531    -2228.419779    -2228.419779  0.002290 -3.404817  0.176295
   scf:    2    -2228.361679    -2228.402712    -2228.402712  0.006413 -3.412668  0.602060
   scf:    3    -2228.425403    -2228.421343    -2228.421343  0.004934 -3.403558  0.005310
   scf:    4    -2228.421347    -2228.421346    -2228.421346  0.000067 -3.402756  0.001368
   scf:    5    -2228.421346    -2228.421346    -2228.421346  0.000036 -3.402420  0.000343

SCF Convergence by DM+H criterion
max |DM_out - DM_in|         :     0.0000357947
max |H_out - H_in|      (eV) :     0.0003429312
SCF cycle converged after 5 iterations

Using DM_out to compute the final energy and forces
No. of atoms with KB's overlaping orbs in proc 0. Max # of overlaps:      35     217

siesta: E_KS(eV) =            -2228.4213

siesta: Atomic forces (eV/Ang):
----------------------------------------
   Tot    0.001386   -0.000000   -0.000000
----------------------------------------
   Max    0.132798
   Res    0.037265    sqrt( Sum f_i^2 / 3N )
----------------------------------------
   Max    0.132798    constrained

Stress-tensor-Voigt (kbar):        0.01       -1.89        0.02        0.00        0.00        0.00
(Free)E + p*V (eV/cell)    -2224.3082
Target enthalpy (eV/cell)    -2228.4213

                     ====================================
                        Begin CG opt. move =     37
                     ====================================

superc: Internal auxiliary supercell:     1 x     5 x     1  =       5
superc: Number of atoms, orbitals, and projectors:     90   1010   1300

outcell: Unit cell vectors (Ang):
       50.000000    0.000000    0.000000
        0.000000    4.266000    0.000000
        0.000000    0.000000   50.000000

outcell: Cell vector modules (Ang)   :   50.000000    4.266000   50.000000
outcell: Cell angles (23,13,12) (deg):     90.0000     90.0000     90.0000
outcell: Cell volume (Ang**3)        :  10665.0000
<dSpData1D:S at geom step 37
  <sparsity:sparsity for geom step 37
    nrows_g=202 nrows=34 sparsity=.3154 nnzs=12868, refcount: 7>
  <dData1D:(new from dSpData1D) n=12868, refcount: 1>
refcount: 1>
new_DM -- step:    38
Re-using DM from previous geometries...
Number of DMs in history: 1
 DM extrapolation coefficients: 
1   1.00000
New DM after history re-use:
<dSpData2D:SpM extrapolated using coords
  <sparsity:sparsity for geom step 37
    nrows_g=202 nrows=34 sparsity=.3154 nnzs=12868, refcount: 8>
  <dData2D:(temp array for extrapolation) n=12868 m=1, refcount: 1>
refcount: 1>
No. of atoms with KB's overlaping orbs in proc 0. Max # of overlaps:      35     217
New grid distribution:   1
           1       1:  160    1:    8    1:   40
           2       1:  160    1:    8   41:   80
           3       1:  160    1:    8   81:  120
           4       1:  160    1:    8  121:  160
           5       1:  160    9:   15    1:   40
           6       1:  160    9:   15   41:   80
           7       1:  160    9:   15   81:  120
           8       1:  160    9:   15  121:  160

InitMesh: MESH =   320 x    30 x   320 =     3072000
InitMesh: (bp) =   160 x    15 x   160 =      384000
InitMesh: Mesh cutoff (required, used) =   100.000   113.204 Ry
ExtMesh (bp) on 0 =   196 x    48 x    76 =      715008
New grid distribution:   2
           1      40:  160    1:   15    1:   78
           2       1:   39    1:   15   79:   80
           3      40:  160    1:   15   81:   82
           4       1:   39    1:   15   83:  160
           5       1:   39    1:   15    1:   78
           6      40:  160    1:   15   79:   80
           7       1:   39    1:   15   81:   82
           8      40:  160    1:   15   83:  160
New grid distribution:   3
           1      41:  160    1:   15    1:   76
           2       1:   40    1:   15   77:   80
           3      41:  160    1:   15   81:   84
           4       1:   40    1:   15   85:  160
           5       1:   40    1:   15    1:   76
           6      41:  160    1:   15   77:   80
           7       1:   40    1:   15   81:   84
           8      41:  160    1:   15   85:  160
Setting up quadratic distribution...
ExtMesh (bp) on 0 =   157 x    55 x   114 =      984390
PhiOnMesh: Number of (b)points on node 0 =               141570
PhiOnMesh: nlist on node 0 =                69069

        iscf     Eharris(eV)        E_KS(eV)     FreeEng(eV)     dDmax    Ef(eV) dHmax(eV)
   scf:    1    -2228.435615    -2228.421234    -2228.421234  0.000879 -3.400138  0.065876
   scf:    2    -2228.413140    -2228.418857    -2228.418857  0.002391 -3.400393  0.224674
   scf:    3    -2228.422018    -2228.421452    -2228.421452  0.001839 -3.400399  0.002019
   scf:    4    -2228.421452    -2228.421452    -2228.421452  0.000026 -3.400726  0.000578

SCF Convergence by DM+H criterion
max |DM_out - DM_in|         :     0.0000262858
max |H_out - H_in|      (eV) :     0.0005778127
SCF cycle converged after 4 iterations

Using DM_out to compute the final energy and forces
No. of atoms with KB's overlaping orbs in proc 0. Max # of overlaps:      35     217

siesta: E_KS(eV) =            -2228.4215

siesta: Atomic forces (eV/Ang):
----------------------------------------
   Tot   -0.018852   -0.000000   -0.000000
----------------------------------------
   Max    0.081931
   Res    0.027179    sqrt( Sum f_i^2 / 3N )
----------------------------------------
   Max    0.081931    constrained

Stress-tensor-Voigt (kbar):        0.03       -1.87        0.02        0.00       -0.00       -0.00
(Free)E + p*V (eV/cell)    -2224.3997
Target enthalpy (eV/cell)    -2228.4215

cgvc: Finished line minimization   14.  Mean atomic displacement =    0.0124

                     ====================================
                        Begin CG opt. move =     38
                     ====================================

superc: Internal auxiliary supercell:     1 x     5 x     1  =       5
superc: Number of atoms, orbitals, and projectors:     90   1010   1300

outcell: Unit cell vectors (Ang):
       50.000000    0.000000    0.000000
        0.000000    4.266000    0.000000
        0.000000    0.000000   50.000000

outcell: Cell vector modules (Ang)   :   50.000000    4.266000   50.000000
outcell: Cell angles (23,13,12) (deg):     90.0000     90.0000     90.0000
outcell: Cell volume (Ang**3)        :  10665.0000
<dSpData1D:S at geom step 38
  <sparsity:sparsity for geom step 38
    nrows_g=202 nrows=34 sparsity=.3154 nnzs=12868, refcount: 7>
  <dData1D:(new from dSpData1D) n=12868, refcount: 1>
refcount: 1>
new_DM -- step:    39
Re-using DM from previous geometries...
Number of DMs in history: 1
 DM extrapolation coefficients: 
1   1.00000
New DM after history re-use:
<dSpData2D:SpM extrapolated using coords
  <sparsity:sparsity for geom step 38
    nrows_g=202 nrows=34 sparsity=.3154 nnzs=12868, refcount: 8>
  <dData2D:(temp array for extrapolation) n=12868 m=1, refcount: 1>
refcount: 1>
No. of atoms with KB's overlaping orbs in proc 0. Max # of overlaps:      35     217
New grid distribution:   1
           1       1:  160    1:    8    1:   40
           2       1:  160    1:    8   41:   80
           3       1:  160    1:    8   81:  120
           4       1:  160    1:    8  121:  160
           5       1:  160    9:   15    1:   40
           6       1:  160    9:   15   41:   80
           7       1:  160    9:   15   81:  120
           8       1:  160    9:   15  121:  160

InitMesh: MESH =   320 x    30 x   320 =     3072000
InitMesh: (bp) =   160 x    15 x   160 =      384000
InitMesh: Mesh cutoff (required, used) =   100.000   113.204 Ry
ExtMesh (bp) on 0 =   196 x    48 x    76 =      715008
New grid distribution:   2
           1      40:  160    1:   15    1:   78
           2       1:   39    1:   15   79:   80
           3      40:  160    1:   15   81:   82
           4       1:   39    1:   15   83:  160
           5       1:   39    1:   15    1:   78
           6      40:  160    1:   15   79:   80
           7       1:   39    1:   15   81:   82
           8      40:  160    1:   15   83:  160
New grid distribution:   3
           1      41:  160    1:   15    1:   76
           2       1:   40    1:   15   77:   80
           3      41:  160    1:   15   81:   84
           4       1:   40    1:   15   85:  160
           5       1:   40    1:   15    1:   76
           6      41:  160    1:   15   77:   80
           7       1:   40    1:   15   81:   84
           8      41:  160    1:   15   85:  160
Setting up quadratic distribution...
ExtMesh (bp) on 0 =   157 x    55 x   114 =      984390
PhiOnMesh: Number of (b)points on node 0 =               141570
PhiOnMesh: nlist on node 0 =                68986

        iscf     Eharris(eV)        E_KS(eV)     FreeEng(eV)     dDmax    Ef(eV) dHmax(eV)
   scf:    1    -2228.347453    -2228.415010    -2228.415010  0.005429 -3.397659  0.345813
   scf:    2    -2228.240554    -2228.364121    -2228.364121  0.010148 -3.465060  1.118905
   scf:    3    -2228.432613    -2228.420148    -2228.420148  0.008007 -3.406962  0.007764
   scf:    4    -2228.420166    -2228.420159    -2228.420159  0.000107 -3.406444  0.002270
   scf:    5    -2228.420161    -2228.420160    -2228.420160  0.000055 -3.406005  0.000489

SCF Convergence by DM+H criterion
max |DM_out - DM_in|         :     0.0000554303
max |H_out - H_in|      (eV) :     0.0004893560
SCF cycle converged after 5 iterations

Using DM_out to compute the final energy and forces
No. of atoms with KB's overlaping orbs in proc 0. Max # of overlaps:      35     217

siesta: E_KS(eV) =            -2228.4202

siesta: Atomic forces (eV/Ang):
----------------------------------------
   Tot    0.036989   -0.000000   -0.000000
----------------------------------------
   Max    0.203456
   Res    0.075151    sqrt( Sum f_i^2 / 3N )
----------------------------------------
   Max    0.203456    constrained

Stress-tensor-Voigt (kbar):       -0.05       -1.87        0.02        0.00        0.00       -0.00
(Free)E + p*V (eV/cell)    -2224.1922
Target enthalpy (eV/cell)    -2228.4202

                     ====================================
                        Begin CG opt. move =     39
                     ====================================

superc: Internal auxiliary supercell:     1 x     5 x     1  =       5
superc: Number of atoms, orbitals, and projectors:     90   1010   1300

outcell: Unit cell vectors (Ang):
       50.000000    0.000000    0.000000
        0.000000    4.266000    0.000000
        0.000000    0.000000   50.000000

outcell: Cell vector modules (Ang)   :   50.000000    4.266000   50.000000
outcell: Cell angles (23,13,12) (deg):     90.0000     90.0000     90.0000
outcell: Cell volume (Ang**3)        :  10665.0000
<dSpData1D:S at geom step 39
  <sparsity:sparsity for geom step 39
    nrows_g=202 nrows=34 sparsity=.3154 nnzs=12868, refcount: 7>
  <dData1D:(new from dSpData1D) n=12868, refcount: 1>
refcount: 1>
new_DM -- step:    40
Re-using DM from previous geometries...
Number of DMs in history: 1
 DM extrapolation coefficients: 
1   1.00000
New DM after history re-use:
<dSpData2D:SpM extrapolated using coords
  <sparsity:sparsity for geom step 39
    nrows_g=202 nrows=34 sparsity=.3154 nnzs=12868, refcount: 8>
  <dData2D:(temp array for extrapolation) n=12868 m=1, refcount: 1>
refcount: 1>
No. of atoms with KB's overlaping orbs in proc 0. Max # of overlaps:      35     217
New grid distribution:   1
           1       1:  160    1:    8    1:   40
           2       1:  160    1:    8   41:   80
           3       1:  160    1:    8   81:  120
           4       1:  160    1:    8  121:  160
           5       1:  160    9:   15    1:   40
           6       1:  160    9:   15   41:   80
           7       1:  160    9:   15   81:  120
           8       1:  160    9:   15  121:  160

InitMesh: MESH =   320 x    30 x   320 =     3072000
InitMesh: (bp) =   160 x    15 x   160 =      384000
InitMesh: Mesh cutoff (required, used) =   100.000   113.204 Ry
ExtMesh (bp) on 0 =   196 x    48 x    76 =      715008
New grid distribution:   2
           1      40:  160    1:   15    1:   78
           2       1:   39    1:   15   79:   80
           3      40:  160    1:   15   81:   82
           4       1:   39    1:   15   83:  160
           5       1:   39    1:   15    1:   78
           6      40:  160    1:   15   79:   80
           7       1:   39    1:   15   81:   82
           8      40:  160    1:   15   83:  160
New grid distribution:   3
           1      41:  160    1:   15    1:   76
           2       1:   40    1:   15   77:   80
           3      41:  160    1:   15   81:   84
           4       1:   40    1:   15   85:  160
           5       1:   40    1:   15    1:   76
           6      41:  160    1:   15   77:   80
           7       1:   40    1:   15   81:   84
           8      41:  160    1:   15   85:  160
Setting up quadratic distribution...
ExtMesh (bp) on 0 =   157 x    55 x   114 =      984390
PhiOnMesh: Number of (b)points on node 0 =               141570
PhiOnMesh: nlist on node 0 =                69035

        iscf     Eharris(eV)        E_KS(eV)     FreeEng(eV)     dDmax    Ef(eV) dHmax(eV)
   scf:    1    -2228.453180    -2228.419202    -2228.419202  0.003829 -3.409729  0.242200
   scf:    2    -2228.333423    -2228.394183    -2228.394183  0.007072 -3.386695  0.784489
   scf:    3    -2228.427875    -2228.421730    -2228.421730  0.005570 -3.401552  0.005519
   scf:    4    -2228.421739    -2228.421735    -2228.421735  0.000075 -3.401927  0.001500
   scf:    5    -2228.421737    -2228.421736    -2228.421736  0.000039 -3.402199  0.000404

SCF Convergence by DM+H criterion
max |DM_out - DM_in|         :     0.0000391429
max |H_out - H_in|      (eV) :     0.0004035820
SCF cycle converged after 5 iterations

Using DM_out to compute the final energy and forces
No. of atoms with KB's overlaping orbs in proc 0. Max # of overlaps:      35     217

siesta: E_KS(eV) =            -2228.4217

siesta: Atomic forces (eV/Ang):
----------------------------------------
   Tot   -0.003457   -0.000000   -0.000000
----------------------------------------
   Max    0.037697
   Res    0.012204    sqrt( Sum f_i^2 / 3N )
----------------------------------------
   Max    0.037697    constrained

Stress-tensor-Voigt (kbar):        0.01       -1.87        0.02        0.00       -0.00        0.00
(Free)E + p*V (eV/cell)    -2224.3383
Target enthalpy (eV/cell)    -2228.4217

outcoor: Relaxed atomic coordinates (Ang):                  
    7.41708315    2.63773543   25.00000000   1       1  H
    7.41708315    0.20626457   25.00000000   1       2  H
   16.80367484    0.20788408   25.00000000   1       3  H
   16.80367484    2.63611592   25.00000000   1       4  H
    9.61076837    0.00676746   25.00000000   2       5  C
    8.38248205    0.73305685   25.00000000   2       6  C
    8.38248205    2.11094315   25.00000000   2       7  C
    9.61076837    2.83723254   25.00000000   2       8  C
   12.10958929   -0.00261826   25.00000000   2       9  C
   10.85675490    0.70736093   25.00000000   2      10  C
   10.85675490    2.13663907   25.00000000   2      11  C
   12.10958929    2.84661826   25.00000000   2      12  C
   14.60919303    0.00680732   25.00000000   2      13  C
   13.36262860    0.70717396   25.00000000   2      14  C
   13.36262860    2.13682604   25.00000000   2      15  C
   14.60919303    2.83719268   25.00000000   2      16  C
   15.83763933    0.73335969   25.00000000   2      17  C
   15.83763933    2.11064031   25.00000000   2      18  C

siesta: Program's energy decomposition (eV):
siesta: Ebs     =      -720.910377
siesta: Eions   =      2900.553583
siesta: Ena     =       293.887904
siesta: Ekin    =      1628.297089
siesta: Enl     =      -511.963565
siesta: Eso     =         0.000000
siesta: Eldau   =         0.000000
siesta: DEna    =       -37.451215
siesta: DUscf   =         3.951250
siesta: DUext   =         0.000000
siesta: Exc     =      -704.589615
siesta: eta*DQ  =         0.000000
siesta: Emadel  =         0.000000
siesta: Emeta   =         0.000000
siesta: Emolmec =         0.000000
siesta: Ekinion =         0.000000
siesta: Eharris =     -2228.421737
siesta: Etot    =     -2228.421736
siesta: FreeEng =     -2228.421736

siesta: Final energy (eV):
siesta:  Band Struct. =    -720.910377
siesta:       Kinetic =    1628.297089
siesta:       Hartree =   20708.961415
siesta:       Eldau   =       0.000000
siesta:       Eso     =       0.000000
siesta:    Ext. field =       0.000000
siesta:   Exch.-corr. =    -704.589615
siesta:  Ion-electron =  -42850.440898
siesta:       Ion-ion =   18989.350274
siesta:       Ekinion =       0.000000
siesta:         Total =   -2228.421736
siesta:         Fermi =      -3.402199

siesta: Stress tensor (static) (eV/Ang**3):
siesta:     0.000006    0.000000    0.000000
siesta:     0.000000   -0.001167   -0.000000
siesta:     0.000000   -0.000000    0.000012

siesta: Cell volume =      10665.000000 Ang**3

siesta: Pressure (static):
siesta:                Solid            Molecule  Units
siesta:           0.00000417          0.00000426  Ry/Bohr**3
siesta:           0.00038289          0.00039083  eV/Ang**3
siesta:           0.61345798          0.62618569  kBar
(Free)E+ p_basis*V_orbitals  =       -2223.500175
(Free)Eharris+ p_basis*V_orbitals  =       -2223.500176

siesta: Electric dipole (a.u.)  =    0.000227   -0.000000    0.000000
siesta: Electric dipole (Debye) =    0.000578   -0.000000    0.000000
>> End of run:  27-MAY-2021  10:47:13
Job completed
Job completed
