Siesta Version  : 5.0.0-alpha-6-g46a0c9063
Architecture    : x86_64-unknown-linux-gnu--unknown
Compiler version: GNU Fortran (Ubuntu 10.2.0-13ubuntu1) 10.2.0
Compiler flags  : mpif90 -g -O2 -fallow-argument-mismatch
PP flags        : -DMPI -DFC_HAVE_FLUSH -DFC_HAVE_ABORT
Libraries       :  /usr/lib/x86_64-linux-gnu/libscalapack-openmpi.so  -L/usr/lib/x86_64-linux-ggnu -lblas -llapack -lblas
Directory       : /home/asier/Documents/master/tfm/siesta/Examples/Graphene
PARALLEL version

* Running in serial mode with MPI
>> Start of run:   5-MAY-2021  19:35:41

                           ***********************       
                           *  WELCOME TO SIESTA  *       
                           ***********************       

reinit: Reading from graphene.fdf

reinit: -----------------------------------------------------------------------
reinit: System Name: Graphene
reinit: -----------------------------------------------------------------------
reinit: System Label: gr
reinit: -----------------------------------------------------------------------

initatom: Reading input for the pseudopotentials and atomic orbitals ----------
Species number:   1 Atomic number:    6 Label: C

Ground state valence configuration:   2s02  2p02
Reading pseudopotential information in formatted form from C.psf

Valence configuration for pseudopotential generation:
2s( 2.00) rc: 1.20
2p( 2.00) rc: 1.19
3d( 0.00) rc: 1.43
4f( 0.00) rc: 1.43
For C, standard SIESTA heuristics set lmxkb to 3
 (one more than the basis l, including polarization orbitals).
Use PS.lmax or PS.KBprojectors blocks to override.

<basis_specs>
===============================================================================
C                    Z=   6    Mass=  12.010        Charge= 0.17977+309
Lmxo=1 Lmxkb= 3    BasisType=split      Semic=F
L=0  Nsemic=0  Cnfigmx=2
          i=1  nzeta=2  polorb=0  (2s)
            splnorm:   0.15000    
               vcte:    0.0000    
               rinn:    0.0000    
               qcoe:    0.0000    
               qyuk:    0.0000    
               qwid:   0.10000E-01
                rcs:    0.0000      0.0000    
            lambdas:    1.0000      1.0000    
L=1  Nsemic=0  Cnfigmx=2
          i=1  nzeta=2  polorb=1  (2p)
            splnorm:   0.15000    
               vcte:    0.0000    
               rinn:    0.0000    
               qcoe:    0.0000    
               qyuk:    0.0000    
               qwid:   0.10000E-01
                rcs:    0.0000      0.0000    
            lambdas:    1.0000      1.0000    
-------------------------------------------------------------------------------
L=0  Nkbl=1  erefs: 0.17977+309
L=1  Nkbl=1  erefs: 0.17977+309
L=2  Nkbl=1  erefs: 0.17977+309
L=3  Nkbl=1  erefs: 0.17977+309
===============================================================================
</basis_specs>

atom: Called for C                     (Z =   6)

read_vps: Pseudopotential generation method:
read_vps: ATM3      Troullier-Martins                       
Valence charge for ps generation:    4.00000

read_vps: Pseudopotential includes a core correction:
read_vps: Pseudo-core for xc-correction

xc_check: Exchange-correlation functional:
xc_check: Ceperley-Alder
xc_check: WARNING: Pseudopotential generated with GGA PBE functional
V l=0 = -2*Zval/r beyond r=  1.2007
V l=1 = -2*Zval/r beyond r=  1.1710
V l=2 = -2*Zval/r beyond r=  1.4126
V l=3 = -2*Zval/r beyond r=  1.3951
All V_l potentials equal beyond r=  1.3951
This should be close to max(r_c) in ps generation
All pots = -2*Zval/r beyond r=  1.4126

VLOCAL1: 99.0% of the norm of Vloc inside     22.304 Ry
VLOCAL1: 99.9% of the norm of Vloc inside     50.830 Ry
atom: Maximum radius for 4*pi*r*r*local-pseudopot. charge    1.68286
atom: Maximum radius for r*vlocal+2*Zval:    1.44839

KBgen: Kleinman-Bylander projectors: 
GHOST: No ghost state for L =  0
   l= 0   rc=  1.561233   el= -0.999550   Ekb=  7.980813   kbcos=  0.258020
GHOST: No ghost state for L =  1
   l= 1   rc=  1.561233   el= -0.384441   Ekb= -5.415610   kbcos= -0.290546
GHOST: No ghost state for L =  2
   l= 2   rc=  1.682861   el=  0.002326   Ekb= -0.997808   kbcos= -0.007543
GHOST: No ghost state for L =  3
   l= 3   rc=  1.791422   el=  0.003420   Ekb= -0.399024   kbcos= -0.000914

KBgen: Total number of  Kleinman-Bylander projectors:   16
atom: -------------------------------------------------------------------------

atom: SANKEY-TYPE ORBITALS:
atom: Selected multiple-zeta basis: split     

SPLIT: Orbitals with angular momentum L= 0

SPLIT: Basis orbitals for state 2s

SPLIT: PAO cut-off radius determined from an
SPLIT: energy shift=  0.020000 Ry

   izeta = 1
                 lambda =    1.000000
                     rc =    4.191849
                 energy =   -0.981481
                kinetic =    0.927322
    potential(screened) =   -1.908803
       potential(ionic) =   -5.493960

   izeta = 2
                 rmatch =    3.431921
              splitnorm =    0.150000
                 energy =   -0.846270
                kinetic =    1.394509
    potential(screened) =   -2.240779
       potential(ionic) =   -6.050363

SPLIT: Orbitals with angular momentum L= 1

SPLIT: Basis orbitals for state 2p

SPLIT: PAO cut-off radius determined from an
SPLIT: energy shift=  0.020000 Ry

   izeta = 1
                 lambda =    1.000000
                     rc =    4.993604
                 energy =   -0.366603
                kinetic =    2.545794
    potential(screened) =   -2.912398
       potential(ionic) =   -6.373834

   izeta = 2
                 rmatch =    3.518811
              splitnorm =    0.150000
                 energy =   -0.205329
                kinetic =    3.864202
    potential(screened) =   -4.069530
       potential(ionic) =   -7.907081

POLgen: Perturbative polarization orbital with L=  2

POLgen: Polarization orbital for state 2p

   izeta = 1
                     rc =    4.993604
                 energy =    1.231019
                kinetic =    2.503133
    potential(screened) =   -1.272114
       potential(ionic) =   -4.173876
atom: Total number of Sankey-type orbitals: 13

atm_pop: Valence configuration (for local Pseudopot. screening):
 2s( 2.00)                                                            
 2p( 2.00)                                                            
Vna: chval, zval:    4.00000   4.00000

Vna:  Cut-off radius for the neutral-atom potential:   4.993604
comcore: Pseudo-core radius Rcore=  1.791422

atom: _________________________________________________________________________

prinput: Basis input ----------------------------------------------------------

PAO.BasisType split     

%block ChemicalSpeciesLabel
    1    6 C                       # Species index, atomic number, species label
%endblock ChemicalSpeciesLabel

%block PAO.Basis                 # Define Basis set
C                     2                    # Species label, number of l-shells
 n=2   0   2                         # n, l, Nzeta 
   4.192      3.432   
   1.000      1.000   
 n=2   1   2 P   1                   # n, l, Nzeta, Polarization, NzetaPol
   4.994      3.519   
   1.000      1.000   
%endblock PAO.Basis

prinput: ----------------------------------------------------------------------

coor:   Atomic-coordinates input format  =     Cartesian coordinates
coor:                                          (in Angstroms)

siesta: Atomic coordinates (Bohr) and species
siesta:      0.00000   0.00000   0.00000  1        1
siesta:      0.00000   2.69192   0.00000  1        2

siesta: System type = slab      

initatomlists: Number of atoms, orbitals, and projectors:      2    26    32

siesta: ******************** Simulation parameters ****************************
siesta:
siesta: The following are some of the parameters of the simulation.
siesta: A complete list of the parameters used, including default values,
siesta: can be found in file out.fdf
siesta:
redata: Spin configuration                          = none
redata: Number of spin components                   = 1
redata: Time-Reversal Symmetry                      = T
redata: Spin spiral                                 = F
redata: Long output                                 =   F
redata: Number of Atomic Species                    =        1
redata: Charge density info will appear in .RHO file
redata: Write Mulliken Pop.                         = NO
redata: Matel table size (NRTAB)                    =     1024
redata: Mesh Cutoff                                 =   300.0000 Ry
redata: Net charge of the system                    =     0.0000 |e|
redata: Min. number of SCF Iter                     =        0
redata: Max. number of SCF Iter                     =     1000
redata: SCF convergence failure will abort job
redata: SCF mix quantity                            = Hamiltonian
redata: Mix DM or H after convergence               =   F
redata: Recompute H after scf cycle                 =   F
redata: Mix DM in first SCF step                    =   T
redata: Write Pulay info on disk                    =   F
redata: New DM Occupancy tolerance                  = 0.000000000001
redata: No kicks to SCF
redata: DM Mixing Weight for Kicks                  =     0.5000
redata: Require Harris convergence for SCF          =   F
redata: Harris energy tolerance for SCF             =     0.000100 eV
redata: Require DM convergence for SCF              =   T
redata: DM tolerance for SCF                        =     0.000100
redata: Require EDM convergence for SCF             =   F
redata: EDM tolerance for SCF                       =     0.001000 eV
redata: Require H convergence for SCF               =   T
redata: Hamiltonian tolerance for SCF               =     0.001000 eV
redata: Require (free) Energy convergence for SCF   =   F
redata: (free) Energy tolerance for SCF             =     0.000100 eV
redata: Using Saved Data (generic)                  =   F
redata: Use continuation files for DM               =   F
redata: Neglect nonoverlap interactions             =   F
redata: Method of Calculation                       = Diagonalization
redata: Electronic Temperature                      =   299.9869 K
redata: Fix the spin of the system                  =   F
redata: Max. number of TDED Iter                    =        1
redata: Number of TDED substeps                     =        3
redata: Dynamics option                             = Single-point calculation
mix.SCF: Pulay mixing                            = Pulay
mix.SCF:    Variant                              = stable
mix.SCF:    History steps                        = 2
mix.SCF:    Linear mixing weight                 =     0.250000
mix.SCF:    Mixing weight                        =     0.250000
mix.SCF:    SVD condition                        = 0.1000E-07
redata: ***********************************************************************

%block SCF.Mixers
  Pulay
%endblock SCF.Mixers

%block SCF.Mixer.Pulay
  # Mixing method
  method pulay
  variant stable

  # Mixing options
  weight 0.2500
  weight.linear 0.2500
  history 2
%endblock SCF.Mixer.Pulay

DM_history_depth set to one: no extrapolation allowed by default for geometry relaxation
Size of DM history Fstack: 1
Total number of electrons:     8.000000
Total ionic charge:     8.000000

* ProcessorY, Blocksize:    1  24


* Orbital distribution balance (max,min):    26    26

k-point displ. along   3 input, could be:     0.50    0.00
 Kpoints in:            8 . Kpoints trimmed:            8

siesta: k-grid: Number of k-points =         8
siesta: k-points from Monkhorst-Pack grid
siesta: k-cutoff (effective) =     4.935 Ang
siesta: k-point supercell and displacements
siesta: k-grid:    4   0   0      0.500
siesta: k-grid:    0   4   0      0.500
siesta: k-grid:    0   0   1      0.500

diag: Algorithm                                     = D&C
diag: Parallel over k                               =   F
diag: Use parallel 2D distribution                  =   F
diag: Parallel block-size                           = 24
diag: Parallel distribution                         =     1 x     1
diag: Used triangular part                          = Lower
diag: Absolute tolerance                            =  0.100E-15
diag: Orthogonalization factor                      =  0.100E-05
diag: Memory factor                                 =  1.0000

superc: Internal auxiliary supercell:     5 x     7 x     1  =      35
superc: Number of atoms, orbitals, and projectors:     70    910   1120


ts: **************************************************************
ts: Save H and S matrices                           =    F
ts: Save DM and EDM matrices                        =    F
ts: Only save the overlap matrix S                  =    F
ts: **************************************************************

************************ Begin: TS CHECKS AND WARNINGS ************************
************************ End: TS CHECKS AND WARNINGS **************************


                     ====================================
                        Single-point calculation
                     ====================================

superc: Internal auxiliary supercell:     5 x     7 x     1  =      35
superc: Number of atoms, orbitals, and projectors:     70    910   1120

outcell: Unit cell vectors (Ang):
        2.467400    0.000000    0.000000
        0.000000    2.467400    0.000000
        0.000000  -12.337000   21.368311

outcell: Cell vector modules (Ang)   :    2.467400    2.467400   24.674000
outcell: Cell angles (23,13,12) (deg):    120.0000     90.0000     90.0000
outcell: Cell volume (Ang**3)        :    130.0916
<dSpData1D:S at geom step 0
  <sparsity:sparsity for geom step 0
    nrows_g=26 nrows=26 sparsity=20.6657 nnzs=13970, refcount: 7>
  <dData1D:(new from dSpData1D) n=13970, refcount: 1>
refcount: 1>
new_DM -- step:     1
Initializing Density Matrix...
DM filled with atomic data:
<dSpData2D:DM initialized from atoms
  <sparsity:sparsity for geom step 0
    nrows_g=26 nrows=26 sparsity=20.6657 nnzs=13970, refcount: 8>
  <dData2D:DM n=13970 m=1, refcount: 1>
refcount: 1>
No. of atoms with KB's overlaping orbs in proc 0. Max # of overlaps:      20     175

InitMesh: MESH = 30 x 24 x 240 = 172800
InitMesh: Mesh cutoff (required, used) =   300.000   348.645 Ry
New grid distribution [1]: sub = 2

stepf: Fermi-Dirac step function

siesta: Program's energy decomposition (eV):
siesta: Ebs     =       -88.480251
siesta: Eions   =       557.953400
siesta: Ena     =       149.015324
siesta: Ekin    =       249.073630
siesta: Enl     =       -17.930412
siesta: Eso     =         0.000000
siesta: Edftu   =         0.000000
siesta: DEna    =       -25.859448
siesta: DUscf   =         3.574903
siesta: DUext   =         0.000000
siesta: Ex      =      -103.510728
siesta: Ec      =       -13.720372
siesta: Exc     =      -117.231100
siesta: eta*DQ  =         0.000000
siesta: Emadel  =         0.000000
siesta: Emeta   =         0.000000
siesta: Emolmec =         0.000000
siesta: Ekinion =         0.000000
siesta: Eharris =      -316.478121
siesta: Etot    =      -317.310503
siesta: FreeEng =      -317.310503

        iscf     Eharris(eV)        E_KS(eV)     FreeEng(eV)     dDmax    Ef(eV) dHmax(eV)
   scf:    1     -316.478121     -317.310503     -317.310503  1.828283 -6.275575  6.384372
timer: Routine,Calls,Time,% = IterSCF        1       0.225  14.62
   scf:    2     -318.364111     -317.859166     -317.859166  0.047193 -4.651619  3.970898
   scf:    3     -318.444143     -318.221074     -318.221074  0.080776 -3.912188  0.169888
   scf:    4     -318.221442     -318.221355     -318.221355  0.002987 -4.001659  0.050754
   scf:    5     -318.221565     -318.221463     -318.221463  0.000331 -4.009091  0.037287
   scf:    6     -318.221650     -318.221567     -318.221567  0.000787 -4.027754  0.006287
   scf:    7     -318.221571     -318.221569     -318.221569  0.000043 -4.029356  0.004004
   scf:    8     -318.221571     -318.221570     -318.221570  0.000078 -4.032062  0.001730
   scf:    9     -318.221570     -318.221570     -318.221570  0.000018 -4.032010  0.001193
   scf:   10     -318.221571     -318.221570     -318.221570  0.000025 -4.031783  0.000684

SCF Convergence by DM+H criterion
max |DM_out - DM_in|         :     0.0000251568
max |H_out - H_in|      (eV) :     0.0006842189
SCF cycle converged after 10 iterations

Using DM_out to compute the final energy and forces
No. of atoms with KB's overlaping orbs in proc 0. Max # of overlaps:      20     175

siesta: E_KS(eV) =             -318.2216

siesta: E_KS - E_eggbox =      -318.2216

siesta: Atomic forces (eV/Ang):
----------------------------------------
   Tot    0.000000   -0.002351    0.000000
----------------------------------------
   Max   35.173189
   Res   20.306571    sqrt( Sum f_i^2 / 3N )
----------------------------------------
   Max   35.173189    constrained

Stress tensor Voigt[x,y,z,yz,xz,xy] (kbar):      -81.95     -386.08        0.02        0.00        0.00        0.00
(Free)E + p*V (eV/cell)     -305.5547
Target enthalpy (eV/cell)     -318.2216

siesta: Program's energy decomposition (eV):
siesta: Ebs     =      -104.490807
siesta: Eions   =       557.953400
siesta: Ena     =       149.015324
siesta: Ekin    =       234.972607
siesta: Enl     =       -15.279875
siesta: Eso     =         0.000000
siesta: Edftu   =         0.000000
siesta: DEna    =       -15.984746
siesta: DUscf   =         1.608707
siesta: DUext   =         0.000000
siesta: Ex      =      -101.008774
siesta: Ec      =       -13.591414
siesta: Exc     =      -114.600188
siesta: eta*DQ  =         0.000000
siesta: Emadel  =         0.000000
siesta: Emeta   =         0.000000
siesta: Emolmec =         0.000000
siesta: Ekinion =         0.000000
siesta: Eharris =      -318.221571
siesta: Etot    =      -318.221570
siesta: FreeEng =      -318.221570

siesta: Final energy (eV):
siesta:  Band Struct. =    -104.490807
siesta:       Kinetic =     234.972607
siesta:       Hartree =    1473.060013
siesta:       Edftu   =       0.000000
siesta:       Eso     =       0.000000
siesta:    Ext. field =       0.000000
siesta:         Exch. =    -101.008774
siesta:         Corr. =     -13.591414
siesta:   Exch.-corr. =    -114.600188
siesta:  Ion-electron =   -3156.806372
siesta:       Ion-ion =    1245.152368
siesta:       Ekinion =       0.000000
siesta:         Total =    -318.221570
siesta:         Fermi =      -4.031783

siesta: Atomic forces (eV/Ang):
siesta:      1    0.000000   35.170838    0.000000
siesta:      2    0.000000  -35.173189    0.000000
siesta: ----------------------------------------
siesta:    Tot    0.000000   -0.002351    0.000000

siesta: Stress tensor (static) (eV/Ang**3):
siesta:    -0.051152    0.000000    0.000000
siesta:     0.000000   -0.240967    0.000000
siesta:     0.000000    0.000000    0.000011

siesta: Cell volume =        130.091617 Ang**3

siesta: Pressure (static):
siesta:                Solid            Molecule  Units
siesta:           0.00106047          0.00245867  Ry/Bohr**3
siesta:           0.09736901          0.22574657  eV/Ang**3
siesta:         156.00403190        361.68978213  kBar
(Free)E+ p_basis*V_orbitals  =        -317.591338
(Free)Eharris+ p_basis*V_orbitals  =        -317.591338

siesta: Electric dipole (a.u.)  =   -0.000000   -0.000000   -0.000000
siesta: Electric dipole (Debye) =   -0.000000   -0.000000   -0.000000

cite: Please see "gr.bib" for an exhaustive BiBTeX file.
cite: Please clearly indicate Siesta version in published work: 5.0.0-alpha-6-g46a0c9063
cite: This calculation has made use of the following articles
cite: which are encouraged to be cited in a published work.
        Primary SIESTA paper
          DOI: www.doi.org/10.1088/0953-8984/14/11/302


timer: Elapsed wall time (sec) =       4.413
timer: CPU execution times (sec):

Routine            Calls   Time/call    Tot.time        %
siesta                 1       4.151       4.151   100.00
Setup                  1       0.051       0.051     1.22
bands                  1       0.000       0.000     0.00
KSV_init               1       0.000       0.000     0.00
IterGeom               1       4.100       4.100    98.75
geom_init              1       1.265       1.265    30.48
state_init             1       0.130       0.130     3.14
hsparse                1       0.002       0.002     0.06
overlap                1       0.122       0.122     2.95
Setup_H0               1       0.930       0.930    22.41
naefs                  2       0.000       0.000     0.01
MolMec                 2       0.000       0.000     0.00
kinefsm                2       0.058       0.117     2.82
nlefsm                 2       0.259       0.518    12.47
DHSCF_Init             1       0.367       0.367     8.84
DHSCF1                 1       0.035       0.035     0.85
INITMESH               1       0.000       0.000     0.00
DHSCF2                 1       0.331       0.331     7.99
REMESH                 1       0.031       0.031     0.75
REORD                 39       0.000       0.010     0.25
PHION                  1       0.230       0.230     5.55
COMM_BSC              51       0.000       0.011     0.26
POISON                13       0.039       0.502    12.09
fft                   26       0.018       0.459    11.06
setup_H               11       0.205       2.254    54.31
DHSCF                 12       0.235       2.823    67.99
DHSCF3                12       0.205       2.454    59.12
rhoofd                12       0.091       1.095    26.39
XC                    12       0.009       0.103     2.48
GXC-CellXC            12       0.008       0.092     2.22
cellXC                12       0.008       0.092     2.22
vmat                  12       0.062       0.746    17.97
IterSCF               10       0.219       2.185    52.65
compute_dm            10       0.013       0.130     3.14
diagon                10       0.013       0.130     3.13
c-eigval              80       0.001       0.043     1.05
c-buildHS             80       0.000       0.033     0.79
cdiag                160       0.000       0.029     0.71
cdiag1               160       0.000       0.002     0.06
cdiag2               160       0.000       0.004     0.09
cdiag3               160       0.000       0.021     0.51
c-eigvec              80       0.001       0.051     1.24
cdiag4                80       0.000       0.000     0.01
c-buildD              80       0.000       0.034     0.82
MIXER                  9       0.000       0.002     0.04
PostSCF                1       0.648       0.648    15.62
DHSCF4                 1       0.368       0.368     8.87
dfscf                  1       0.335       0.335     8.08
overfsm                1       0.004       0.004     0.10
state_analysis         1       0.000       0.000     0.01
siesta_move            1       0.000       0.000     0.00
Analysis               1       0.001       0.001     0.01
optical                1       0.000       0.000     0.00
  

>> End of run:   5-MAY-2021  19:35:46
Job completed
