Siesta Version  : v4.1-b4
Architecture    : unknown
Compiler version: ifort (IFORT) 18.0.3 20180410
Compiler flags  : mpiifort -O2 -fopenmp -fPIC -ftree-vectorize -march=native -I/scratch/scicompp/easybuild/CentOS/7.3.1611/Haswell/software/netCDF/4.6.1-intel-2018b/include -I/scratch/scicomp/easybuild/CentOS/7.3.1611/Haswell/software/netCDF-Fortran/4.4.4-intel-2018b/include  -I/scratch/scicomp/easybuild/CentOS/7.3.1611/Haswell/software/HDF5/1.10.2-intel-2018b/include -I/scratch/scicomp/easybuild/CentOS/7.3.1611/Haswell/software/imkl/2018.3.222-iimpi-2018b/mkl/include
PP flags        : -DFC_HAVE_ABORT -DMPI -DCDF -DNCDF -DNCDF_4 -DGRID_DP -DPHI_GRID_SP
Libraries       : libncdf.a libfdict.a -L/scratch/scicomp/easybuild/CentOS/7.3.1611/Haswell/sofftware/netCDF-Fortran/4.4.4-intel-2018b/lib -lnetcdff -L/scratch/scicomp/easybuild/CentOS/7.3.1611/Haswell/software/cURL/7.60.0-GCCcore-7.3.0/lib -lcurl -L/scratch/scicomp/easybuild/CentOS/7.3.1611/Haswell/software/netCDF/4.6.1-intel-2018b/lib64 -lnetcdf -L/scratch/scicomp/easybuild/CentOS/7.3.1611/Haswell/software/HDF5/1.10.2-intel-2018b/lib -lhdf5hl_fortran -lhdf5_fortran -lhdf5_hl -lhdf5 -L/scratch/scicomp/easybuild/CentOS/7.3.1611/Haswell/software/imkl/2018.3.222-iimpi-2018b/mkl/lib/intel64 -lmkl_scalapack_lp64 -lmkl_intel_lp64 -lmkl_intel_thread -lmkl_core -lmkl_blacs_intelmpi_lp64 -liomp5 -lpthread -lm -ldl
PARALLEL version
NetCDF support
NetCDF-4 support

* Running on 16 nodes in parallel
* Running 1 OpenMP threads.
* Running 16 processes.
* OpenMP version 201611
* OpenMP NOT bound (please bind threads!)
* OpenMP runtime schedule STATIC, chunks 0
>> Start of run:  10-JUN-2021  10:19:29

                           ***********************       
                           *  WELCOME TO SIESTA  *       
                           ***********************       

reinit: Reading from RUN.fdf

reinit: -----------------------------------------------------------------------
reinit: System Name: 
reinit: -----------------------------------------------------------------------
reinit: System Label: NPG
reinit: -----------------------------------------------------------------------

initatom: Reading input for the pseudopotentials and atomic orbitals ----------
Species number:   1 Atomic number:    6 Label: C
Species number:   2 Atomic number:    1 Label: H
 
Ground state valence configuration:   2s02  2p02
Reading pseudopotential information in formatted form from C.psf

Pseudopotential generated from a relativistic atomic calculation

Valence configuration for pseudopotential generation:
2s( 2.00) rc: 1.25
2p( 2.00) rc: 1.25
3d( 0.00) rc: 1.98
4f( 0.00) rc: 1.98
Ground state valence configuration:   1s01
Reading pseudopotential information in formatted form from H.psf

Valence configuration for pseudopotential generation:
1s( 1.00) rc: 1.25
2p( 0.00) rc: 1.25
3d( 0.00) rc: 1.25
4f( 0.00) rc: 1.25
For C, standard SIESTA heuristics set lmxkb to 3
 (one more than the basis l, including polarization orbitals).
Use PS.lmax or PS.KBprojectors blocks to override.
For H, standard SIESTA heuristics set lmxkb to 2
 (one more than the basis l, including polarization orbitals).
Use PS.lmax or PS.KBprojectors blocks to override.

<basis_specs>
===============================================================================
C                    Z=   6    Mass=  12.010        Charge= 0.17977+309
Lmxo=1 Lmxkb= 3    BasisType=split      Semic=F
L=0  Nsemic=1  Cnfigmx=3
          n=1  nzeta=2  polorb=0
            splnorm:   0.15000    
               vcte:    0.0000    
               rinn:    0.0000    
               qcoe:    0.0000    
               qyuk:    0.0000    
               qwid:   0.10000E-01
                rcs:    0.0000      0.0000    
            lambdas:    1.0000      1.0000    
          n=2  nzeta=1  polorb=0
            splnorm:   0.15000    
               vcte:    0.0000    
               rinn:    0.0000    
               qcoe:    0.0000    
               qyuk:    0.0000    
               qwid:   0.10000E-01
                rcs:    10.000    
            lambdas:    1.0000    
L=1  Nsemic=1  Cnfigmx=3
          n=1  nzeta=2  polorb=1
            splnorm:   0.15000    
               vcte:    0.0000    
               rinn:    0.0000    
               qcoe:    0.0000    
               qyuk:    0.0000    
               qwid:   0.10000E-01
                rcs:    0.0000      0.0000    
            lambdas:    1.0000      1.0000    
          n=2  nzeta=1  polorb=0
            splnorm:   0.15000    
               vcte:    0.0000    
               rinn:    0.0000    
               qcoe:    0.0000    
               qyuk:    0.0000    
               qwid:   0.10000E-01
                rcs:    10.000    
            lambdas:    1.0000    
-------------------------------------------------------------------------------
L=0  Nkbl=2  erefs: 0.17977+309 0.17977+309
L=1  Nkbl=2  erefs: 0.17977+309 0.17977+309
L=2  Nkbl=1  erefs: 0.17977+309
L=3  Nkbl=1  erefs: 0.17977+309
===============================================================================
</basis_specs>

atom: Called for C                     (Z =   6)

read_vps: Pseudopotential generation method:
read_vps: ATM3      Troullier-Martins                       
Total valence charge:    4.00000

xc_check: Exchange-correlation functional:
xc_check: GGA Perdew, Burke & Ernzerhof 1996
V l=0 = -2*Zval/r beyond r=  1.5418
V l=1 = -2*Zval/r beyond r=  1.5418
V l=2 = -2*Zval/r beyond r=  1.9553
V l=3 = -2*Zval/r beyond r=  1.9310
All V_l potentials equal beyond r=  1.9310
This should be close to max(r_c) in ps generation
All pots = -2*Zval/r beyond r=  1.9553

VLOCAL1: 99.0% of the norm of Vloc inside     11.642 Ry
VLOCAL1: 99.9% of the norm of Vloc inside     26.531 Ry
atom: Maximum radius for 4*pi*r*r*local-pseudopot. charge    2.30035
atom: Maximum radius for r*vlocal+2*Zval:    2.00478
KBgen: More than one KB projector for l=  0
KBgen: ghost states analysis will be not performed
KBgen: More than one KB projector for l=  1
KBgen: ghost states analysis will be not performed
GHOST: No ghost state for L =  2
GHOST: No ghost state for L =  3

KBgen: Kleinman-Bylander projectors: 
   l= 0   rc=  2.134104   el= -1.010225   Ekb= 11.465766   kbcos=  0.116141
   l= 0   rc=  2.215668   el= -0.016208   Ekb= -6.003622   kbcos= -0.010458
   l= 1   rc=  2.107589   el= -0.388560   Ekb= -6.457899   kbcos= -0.368830
   l= 1   rc=  2.243543   el=  0.001052   Ekb= -0.909352   kbcos= -0.078069
   l= 2   rc=  2.300349   el=  0.001971   Ekb= -0.774314   kbcos= -0.017397
   l= 3   rc=  2.542323   el=  0.003065   Ekb= -0.308789   kbcos= -0.003148

KBgen: Total number of  Kleinman-Bylander projectors:   20
atom: -------------------------------------------------------------------------

atom: SANKEY-TYPE ORBITALS:
atom: Selected multiple-zeta basis: split     

SPLIT: Orbitals with angular momentum L= 0

SPLIT: Basis orbitals for state 2s

SPLIT: PAO cut-off radius determined from an
SPLIT: energy shift=  0.010000 Ry

   izeta = 1
                 lambda =    1.000000
                     rc =    4.518360
                 energy =   -1.000924
                kinetic =    0.901832
    potential(screened) =   -1.902756
       potential(ionic) =   -5.483597

   izeta = 2
                 rmatch =    3.431921
              splitnorm =    0.150000
                 energy =   -0.864009
                kinetic =    1.380864
    potential(screened) =   -2.244873
       potential(ionic) =   -6.058854

SPLIT: Basis orbitals for state 3s

   izeta = 1
                 lambda =    1.000000
                     rc =   10.056301
                 energy =    0.030880
                kinetic =    0.262429
    potential(screened) =   -0.231549
       potential(ionic) =   -1.753414

SPLIT: Orbitals with angular momentum L= 1

SPLIT: Basis orbitals for state 2p

SPLIT: PAO cut-off radius determined from an
SPLIT: energy shift=  0.010000 Ry

   izeta = 1
                 lambda =    1.000000
                     rc =    5.518829
                 energy =   -0.379580
                kinetic =    2.483773
    potential(screened) =   -2.863354
       potential(ionic) =   -6.317858

   izeta = 2
                 rmatch =    3.607901
              splitnorm =    0.150000
                 energy =   -0.233312
                kinetic =    3.744417
    potential(screened) =   -3.977729
       potential(ionic) =   -7.820633

SPLIT: Basis orbitals for state 3p

   izeta = 1
                 lambda =    1.000000
                     rc =   10.056301
                 energy =    0.131201
                kinetic =    0.549724
    potential(screened) =   -0.418523
       potential(ionic) =   -1.897204

POLgen: Perturbative polarization orbital with L=  2

POLgen: Polarization orbital for state 2p

   izeta = 1
                     rc =    5.518829
                 energy =    1.134118
                kinetic =    2.331218
    potential(screened) =   -1.197099
       potential(ionic) =   -4.032010
atom: Total number of Sankey-type orbitals: 17

atm_pop: Valence configuration (for local Pseudopot. screening):
 2s( 2.00)                                                            
 2p( 2.00)                                                            
Vna: chval, zval:    4.00000   4.00000

Vna:  Cut-off radius for the neutral-atom potential:   5.518829

atom: _________________________________________________________________________

<basis_specs>
===============================================================================
H                    Z=   1    Mass=  1.0100        Charge= 0.17977+309
Lmxo=0 Lmxkb= 2    BasisType=split      Semic=F
L=0  Nsemic=0  Cnfigmx=1
          n=1  nzeta=2  polorb=1
            splnorm:   0.15000    
               vcte:    0.0000    
               rinn:    0.0000    
               qcoe:    0.0000    
               qyuk:    0.0000    
               qwid:   0.10000E-01
                rcs:    0.0000      0.0000    
            lambdas:    1.0000      1.0000    
-------------------------------------------------------------------------------
L=0  Nkbl=1  erefs: 0.17977+309
L=1  Nkbl=1  erefs: 0.17977+309
L=2  Nkbl=1  erefs: 0.17977+309
===============================================================================
</basis_specs>

atom: Called for H                     (Z =   1)

read_vps: Pseudopotential generation method:
read_vps: ATM3      Troullier-Martins                       
Total valence charge:    1.00000

xc_check: Exchange-correlation functional:
xc_check: GGA Perdew, Burke & Ernzerhof 1996
V l=0 = -2*Zval/r beyond r=  1.2343
V l=1 = -2*Zval/r beyond r=  1.2189
V l=2 = -2*Zval/r beyond r=  1.2189
All V_l potentials equal beyond r=  1.2343
This should be close to max(r_c) in ps generation
All pots = -2*Zval/r beyond r=  1.2343

VLOCAL1: 99.0% of the norm of Vloc inside     28.493 Ry
VLOCAL1: 99.9% of the norm of Vloc inside     64.935 Ry
atom: Maximum radius for 4*pi*r*r*local-pseudopot. charge    1.45251
atom: Maximum radius for r*vlocal+2*Zval:    1.21892
GHOST: No ghost state for L =  0
GHOST: No ghost state for L =  1
GHOST: No ghost state for L =  2

KBgen: Kleinman-Bylander projectors: 
   l= 0   rc=  1.364359   el= -0.477200   Ekb= -2.021939   kbcos= -0.344793
   l= 1   rc=  1.434438   el=  0.001076   Ekb= -0.443447   kbcos= -0.022843
   l= 2   rc=  1.470814   el=  0.002010   Ekb= -0.140543   kbcos= -0.002863

KBgen: Total number of  Kleinman-Bylander projectors:    9
atom: -------------------------------------------------------------------------

atom: SANKEY-TYPE ORBITALS:
atom: Selected multiple-zeta basis: split     

SPLIT: Orbitals with angular momentum L= 0

SPLIT: Basis orbitals for state 1s

SPLIT: PAO cut-off radius determined from an
SPLIT: energy shift=  0.010000 Ry

   izeta = 1
                 lambda =    1.000000
                     rc =    5.204501
                 energy =   -0.466874
                kinetic =    0.935616
    potential(screened) =   -1.402489
       potential(ionic) =   -1.927169

   izeta = 2
                 rmatch =    3.903467
              splitnorm =    0.150000
                 energy =   -0.359380
                kinetic =    1.518080
    potential(screened) =   -1.877460
       potential(ionic) =   -2.426500

POLgen: Perturbative polarization orbital with L=  1

POLgen: Polarization orbital for state 1s

   izeta = 1
                     rc =    5.204501
                 energy =    0.666831
                kinetic =    1.331374
    potential(screened) =   -0.664544
       potential(ionic) =   -1.147060
atom: Total number of Sankey-type orbitals:  5

atm_pop: Valence configuration (for local Pseudopot. screening):
 1s( 1.00)                                                            
Vna: chval, zval:    1.00000   1.00000

Vna:  Cut-off radius for the neutral-atom potential:   5.204501

atom: _________________________________________________________________________

prinput: Basis input ----------------------------------------------------------

PAO.BasisType split     

%block ChemicalSpeciesLabel
    1    6 C                       # Species index, atomic number, species label
    2    1 H                       # Species index, atomic number, species label
%endblock ChemicalSpeciesLabel

%block PAO.Basis                 # Define Basis set
C                     4                    # Species label, number of l-shells
 n=2   0   2                         # n, l, Nzeta 
   4.518      3.432   
   1.000      1.000   
 n=3   0   1                         # n, l, Nzeta 
  10.056   
   1.000   
 n=2   1   2 P   1                   # n, l, Nzeta, Polarization, NzetaPol
   5.519      3.608   
   1.000      1.000   
 n=3   1   1                         # n, l, Nzeta 
  10.056   
   1.000   
H                     1                    # Species label, number of l-shells
 n=1   0   2 P   1                   # n, l, Nzeta, Polarization, NzetaPol
   5.205      3.903   
   1.000      1.000   
%endblock PAO.Basis

prinput: ----------------------------------------------------------------------

Dumping basis to NetCDF file C.ion.nc
Dumping basis to NetCDF file H.ion.nc
coor:   Atomic-coordinates input format  =     Cartesian coordinates
coor:                                          (in Angstroms)

ioxv: Reading coordinates and velocities from file
! Info in XV file prevails over previous structure input

siesta: Atomic coordinates (Bohr) and species
siesta:     -0.00000  13.75852   0.00000  1        1
siesta:      2.35843  12.37780   0.00000  1        2
siesta:      2.35378   9.64255   0.00000  1        3
siesta:     -0.00000   8.26186   0.00000  1        4
siesta:      2.35339   4.15466   0.00000  1        5
siesta:      2.35948   1.42000   0.00000  1        6
siesta:      4.70956  13.75041   0.00000  1        7
siesta:      7.06648  12.36804   0.00000  1        8
siesta:      6.99289   9.70387   0.00000  1        9
siesta:      4.71361   8.28698   0.00000  1       10
siesta:      4.71438   5.50895   0.00000  1       11
siesta:      6.99194   4.09053   0.00000  1       12
siesta:      7.06194   1.42803   0.00000  1       13
siesta:      4.70739   0.04538   0.00000  1       14
siesta:      9.48371  13.76550   0.00000  1       15
siesta:     11.84839  12.48301   0.00000  1       16
siesta:     11.83750  10.40086   0.00000  2       17
siesta:      8.79540   8.66369   0.00000  2       18
siesta:      8.80083   5.12195   0.00000  2       19
siesta:     11.92983   3.39423   0.00000  2       20
siesta:     11.85468   1.30780   0.00000  1       21
siesta:      9.47148   0.04017   0.00000  1       22
siesta:     14.20751  13.73292   0.00000  1       23
siesta:     16.63916  12.29610   0.00000  1       24
siesta:     16.70027   9.59212   0.00000  1       25
siesta:     14.93476   8.47649   0.00000  2       26
siesta:     15.91191   1.11316   0.00000  2       27
siesta:     14.14640  -0.00247   0.00000  1       28
siesta:     18.99828  13.54602   0.00000  1       29
siesta:     21.36296  12.26353   0.00000  1       30
siesta:     21.37519   9.54948   0.00000  1       31
siesta:     18.99199   8.28184   0.00000  1       32
siesta:     18.91685   6.19541   0.00000  2       33
siesta:     22.04584   4.46769   0.00000  2       34
siesta:     22.05127   0.92595   0.00000  2       35
siesta:     19.00917  -0.81121   0.00000  2       36
siesta:     23.78019  13.66098   0.00000  1       37
siesta:     26.13711  12.27862   0.00000  1       38
siesta:     26.13928   9.54426   0.00000  1       39
siesta:     23.78473   8.16161   0.00000  1       40
siesta:     23.85473   5.49911   0.00000  1       41
siesta:     26.13229   4.08069   0.00000  1       42
siesta:     26.13306   1.30266   0.00000  1       43
siesta:     23.85378  -0.11423   0.00000  1       44
siesta:     28.48824  13.65123   0.00000  1       45
siesta:     30.84667  12.27051   0.00000  1       46
siesta:     30.84667   9.55021   0.00000  1       47
siesta:     28.48719   8.16964   0.00000  1       48
siesta:     28.49328   5.43498   0.00000  1       49
siesta:     30.84667   4.05327   0.00000  1       50
siesta:     30.84667   1.32779   0.00000  1       51
siesta:     28.49289  -0.05291   0.00000  1       52
siesta:     33.20511  13.65123   0.00000  1       53
siesta:     35.55623  12.27862   0.00000  1       54
siesta:     35.55406   9.54426   0.00000  1       55
siesta:     33.20616   8.16964   0.00000  1       56
siesta:     33.20006   5.43498   0.00000  1       57
siesta:     35.56105   4.08069   0.00000  1       58
siesta:     35.56028   1.30266   0.00000  1       59
siesta:     33.20045  -0.05291   0.00000  1       60
siesta:     37.91315  13.66098   0.00000  1       61
siesta:     40.33039  12.26353   0.00000  1       62
siesta:     40.31815   9.54948   0.00000  1       63
siesta:     37.90861   8.16161   0.00000  1       64
siesta:     37.83861   5.49911   0.00000  1       65
siesta:     39.64750   4.46769   0.00000  2       66
siesta:     39.64207   0.92595   0.00000  2       67
siesta:     37.83956  -0.11423   0.00000  1       68
siesta:     42.69507  13.54602   0.00000  1       69
siesta:     45.05418  12.29610   0.00000  1       70
siesta:     44.99307   9.59212   0.00000  1       71
siesta:     42.70135   8.28184   0.00000  1       72
siesta:     42.77650   6.19541   0.00000  2       73
siesta:     45.78143   1.11316   0.00000  2       74
siesta:     42.68417  -0.81121   0.00000  2       75
siesta:     47.48583  13.73292   0.00000  1       76
siesta:     49.84495  12.48301   0.00000  1       77
siesta:     49.85584  10.40086   0.00000  2       78
siesta:     46.75859   8.47649   0.00000  2       79
siesta:     49.76352   3.39423   0.00000  2       80
siesta:     49.83866   1.30780   0.00000  1       81
siesta:     47.54694  -0.00247   0.00000  1       82
siesta:     52.20963  13.76550   0.00000  1       83
siesta:     54.62686  12.36804   0.00000  1       84
siesta:     54.70045   9.70387   0.00000  1       85
siesta:     52.89794   8.66369   0.00000  2       86
siesta:     52.89251   5.12195   0.00000  2       87
siesta:     54.70141   4.09053   0.00000  1       88
siesta:     54.63141   1.42803   0.00000  1       89
siesta:     52.22187   0.04017   0.00000  1       90
siesta:     56.98378  13.75041   0.00000  1       91
siesta:     59.33491  12.37780   0.00000  1       92
siesta:     59.33956   9.64255   0.00000  1       93
siesta:     56.97974   8.28698   0.00000  1       94
siesta:     56.97896   5.50895   0.00000  1       95
siesta:     59.33995   4.15466   0.00000  1       96
siesta:     59.33386   1.42000   0.00000  1       97
siesta:     56.98595   0.04538   0.00000  1       98
siesta:     61.69334   5.53637   0.00000  1       99
siesta:     61.69334   0.03943   0.00000  1      100

siesta: System type = slab      

initatomlists: Number of atoms, orbitals, and projectors:    100  1460  1780

siesta: ******************** Simulation parameters ****************************
siesta:
siesta: The following are some of the parameters of the simulation.
siesta: A complete list of the parameters used, including default values,
siesta: can be found in file out.fdf
siesta:
redata: Spin configuration                          = none
redata: Number of spin components                   = 1
redata: Time-Reversal Symmetry                      = T
redata: Spin-spiral                                 = F
redata: Long output                                 =   F
redata: Number of Atomic Species                    =        2
redata: Charge density info will appear in .RHO file
redata: Write Mulliken Pop.                         = NO
redata: Matel table size (NRTAB)                    =     1024
redata: Mesh Cutoff                                 =   400.0000 Ry
redata: Net charge of the system                    =     0.0000 |e|
redata: Min. number of SCF Iter                     =        0
redata: Max. number of SCF Iter                     =      500
redata: SCF convergence failure will abort job
redata: SCF mix quantity                            = Hamiltonian
redata: Mix DM or H after convergence               =   F
redata: Recompute H after scf cycle                 =   F
redata: Mix DM in first SCF step                    =   T
redata: Write Pulay info on disk                    =   F
redata: New DM Mixing Weight                        =     0.2500
redata: New DM Occupancy tolerance                  = 0.000000000001
redata: No kicks to SCF
redata: DM Mixing Weight for Kicks                  =     0.5000
redata: Require Harris convergence for SCF          =   F
redata: Harris energy tolerance for SCF             =     0.000100 eV
redata: Require DM convergence for SCF              =   T
redata: DM tolerance for SCF                        =     0.000100
redata: Require EDM convergence for SCF             =   F
redata: EDM tolerance for SCF                       =     0.001000 eV
redata: Require H convergence for SCF               =   T
redata: Hamiltonian tolerance for SCF               =     0.000100 eV
redata: Require (free) Energy convergence for SCF   =   F
redata: (free) Energy tolerance for SCF             =     0.000100 eV
redata: Using Saved Data (generic)                  =   F
redata: Use continuation files for DM               =   F
redata: Neglect nonoverlap interactions             =   F
redata: Method of Calculation                       = Diagonalization
redata: Electronic Temperature                      =   299.9869 K
redata: Fix the spin of the system                  =   F
redata: Dynamics option                             = CG coord. optimization
redata: Variable cell                               =   T
redata: Use continuation files for CG               =   T
redata: Max atomic displ per move                   =     0.1058 Ang
redata: Maximum number of CG moves                  =     1000
redata: Force tolerance                             =     0.0100 eV/Ang
redata: Stress tolerance                            =     1.0000 GPa
mix.SCF: Pulay mixing                            = Pulay
mix.SCF:    Variant                              = stable
mix.SCF:    History steps                        = 5
mix.SCF:    Linear mixing weight                 =     0.250000
mix.SCF:    Mixing weight                        =     0.250000
mix.SCF:    SVD condition                        = 0.1000E-07
redata: Save all siesta data in one NC              =   F
redata: ***********************************************************************

%block SCF.Mixers
  Pulay
%endblock SCF.Mixers

%block SCF.Mixer.Pulay
  # Mixing method
  method pulay
  variant stable

  # Mixing options
  weight 0.2500
  weight.linear 0.2500
  history 5
%endblock SCF.Mixer.Pulay
 
DM_history_depth set to one: no extrapolation allowed by default for geometry relaxation
Size of DM history Fstack: 1
Total number of electrons:   340.000000
Total ionic charge:   340.000000

* ProcessorY, Blocksize:    4  24


* Orbital distribution balance (max,min):    96    72

 Kpoints in:          390 . Kpoints trimmed:          383

siesta: k-grid: Number of k-points =   383
siesta: k-grid: Cutoff (effective) =    25.000 Ang
siesta: k-grid: Supercell and displacements
siesta: k-grid:   15   0   0      0.000
siesta: k-grid:    0  51   0      0.000
siesta: k-grid:    0   0   1      0.000
 
diag: Algorithm                                     = D&C
diag: Parallel over k                               =   F
diag: Use parallel 2D distribution                  =   T
diag: Parallel block-size                           = 24
diag: Parallel distribution                         =     4 x     4
diag: Used triangular part                          = Lower
diag: Absolute tolerance                            =  0.100E-15
diag: Orthogonalization factor                      =  0.100E-05
diag: Memory factor                                 =  1.0000

superc: Internal auxiliary supercell:     3 x     5 x     1  =      15
superc: Number of atoms, orbitals, and projectors:   1500  21900  26700
 
siesta: Constrain angle gamma (A-B/1-2)
 
ts: **************************************************************
ts: Save H and S matrices                           =    F
ts: Save DM and EDM matrices                        =    F
ts: Fix Hartree potential                           =    F
ts: Only save the overlap matrix S                  =    F
ts: **************************************************************
 
************************ Begin: TS CHECKS AND WARNINGS ************************
************************ End: TS CHECKS AND WARNINGS **************************


                     ====================================
                        Begin CG opt. move =      0
                     ====================================

superc: Internal auxiliary supercell:     3 x     5 x     1  =      15
superc: Number of atoms, orbitals, and projectors:   1500  21900  26700

outcell: Unit cell vectors (Ang):
       32.646698    0.000000    0.000000
        0.000000    8.699345    0.000000
        0.000000    0.000000   50.000000

outcell: Cell vector modules (Ang)   :   32.646698    8.699345   50.000000
outcell: Cell angles (23,13,12) (deg):     90.0000     90.0000     90.0000
outcell: Cell volume (Ang**3)        :  14200.2437
<dSpData1D:S at geom step 0
  <sparsity:sparsity for geom step 0
    nrows_g=1460 nrows=96 sparsity=.0495 nnzs=105520, refcount: 7>
  <dData1D:(new from dSpData1D) n=105520, refcount: 1>
refcount: 1>
new_DM -- step:     1
Initializing Density Matrix...
DM filled with atomic data:
<dSpData2D:DM initialized from atoms
  <sparsity:sparsity for geom step 0
    nrows_g=1460 nrows=96 sparsity=.0495 nnzs=105520, refcount: 8>
  <dData2D:DM n=105520 m=1, refcount: 1>
refcount: 1>
No. of atoms with KB's overlaping orbs in proc 0. Max # of overlaps:     206     421
New grid distribution:   1
           1       1:  200    1:   14    1:   80
           2       1:  200    1:   14   81:  160
           3       1:  200    1:   14  161:  240
           4       1:  200    1:   14  241:  320
           5       1:  200   15:   28    1:   80
           6       1:  200   15:   28   81:  160
           7       1:  200   15:   28  161:  240
           8       1:  200   15:   28  241:  320
           9       1:  200   29:   41    1:   80
          10       1:  200   29:   41   81:  160
          11       1:  200   29:   41  161:  240
          12       1:  200   29:   41  241:  320
          13       1:  200   42:   54    1:   80
          14       1:  200   42:   54   81:  160
          15       1:  200   42:   54  161:  240
          16       1:  200   42:   54  241:  320

InitMesh: MESH =   400 x   108 x   640 =    27648000
InitMesh: (bp) =   200 x    54 x   320 =     3456000
InitMesh: Mesh cutoff (required, used) =   400.000   414.900 Ry
ExtMesh (bp) on 0 =   332 x   150 x   220 =    10956000
New grid distribution:   2
           1     151:  200    1:   54    8:   25
           2     151:  200    1:   54   26:  313
           3     101:  150    1:   54    1:    7
           4      51:  100    1:   54  314:  320
           5     101:  150    1:   54    8:   25
           6     101:  150    1:   54   26:  313
           7       1:   50    1:   54    1:    7
           8     151:  200    1:   54  314:  320
           9       1:   50    1:   54    8:   25
          10      51:  100    1:   54   26:  313
          11     151:  200    1:   54    1:    7
          12     101:  150    1:   54  314:  320
          13      51:  100    1:   54    8:   25
          14       1:   50    1:   54   26:  313
          15      51:  100    1:   54    1:    7
          16       1:   50    1:   54  314:  320
New grid distribution:   3
           1     151:  200    1:   54   18:   94
           2     101:  150    1:   54    1:   17
           3     151:  200    1:   54   95:  303
           4      51:  100    1:   54  304:  320
           5     101:  150    1:   54   18:   94
           6       1:   50    1:   54    1:   17
           7     101:  150    1:   54   95:  303
           8     151:  200    1:   54  304:  320
           9       1:   50    1:   54   18:   94
          10     151:  200    1:   54    1:   17
          11      51:  100    1:   54   95:  303
          12     101:  150    1:   54  304:  320
          13      51:  100    1:   54   18:   94
          14      51:  100    1:   54    1:   17
          15       1:   50    1:   54   95:  303
          16       1:   50    1:   54  304:  320
Setting up quadratic distribution...
ExtMesh (bp) on 0 =   182 x   190 x   158 =     5463640
PhiOnMesh: Number of (b)points on node 0 =                48600
PhiOnMesh: nlist on node 0 =              5134593

stepf: Fermi-Dirac step function

siesta: Program's energy decomposition (eV):
siesta: Ebs     =     -3958.215167
siesta: Eions   =     16518.285276
siesta: Ena     =      1777.007649
siesta: Ekin    =      9420.504407
siesta: Enl     =     -2985.861400
siesta: Eso     =         0.000000
siesta: Eldau   =         0.000000
siesta: DEna    =      -417.340798
siesta: DUscf   =        52.355688
siesta: DUext   =         0.000000
siesta: Enegf   =         0.000000
siesta: Exc     =     -4021.589918
siesta: eta*DQ  =         0.000000
siesta: Emadel  =         0.000000
siesta: Emeta   =         0.000000
siesta: Emolmec =         0.000000
siesta: Ekinion =         0.000000
siesta: Eharris =    -12666.831289
siesta: Etot    =    -12693.209648
siesta: FreeEng =    -12693.209648

        iscf     Eharris(eV)        E_KS(eV)     FreeEng(eV)     dDmax    Ef(eV) dHmax(eV)
   scf:    1   -12666.831289   -12693.209648   -12693.209648  1.915658 -6.067507  5.524895
timer: Routine,Calls,Time,% = IterSCF        1     457.132  96.22
   scf:    2   -12706.043615   -12700.270871   -12700.270872  0.066674 -5.303038  2.733382
   scf:    3   -12705.135958   -12703.379660   -12703.379661  0.078201 -4.261610  0.735967
   scf:    4   -12703.600333   -12703.499807   -12703.499808  0.005246 -4.225560  0.404488
   scf:    5   -12703.605178   -12703.561857   -12703.561858  0.005670 -4.229062  0.085905
   scf:    6   -12703.570685   -12703.566607   -12703.566608  0.002525 -4.232879  0.057960
   scf:    7   -12703.567965   -12703.567326   -12703.567326  0.001095 -4.245169  0.031001
   scf:    8   -12703.567701   -12703.567529   -12703.567529  0.000704 -4.253630  0.008525
   scf:    9   -12703.567581   -12703.567558   -12703.567559  0.000236 -4.255592  0.001891
   scf:   10   -12703.567565   -12703.567562   -12703.567563  0.000043 -4.255771  0.001133
   scf:   11   -12703.567564   -12703.567563   -12703.567564  0.000011 -4.255798  0.000610
   scf:   12   -12703.567563   -12703.567563   -12703.567564  0.000016 -4.255820  0.000156
   scf:   13   -12703.554379   -12703.560971   -12703.560972  0.000109 -4.255821  0.000162
   scf:   14   -12703.574155   -12703.567563   -12703.567564  0.000111 -4.255821  0.000058
   scf:   15   -12703.567563   -12703.567563   -12703.567564  0.000001 -4.255820  0.000045

SCF Convergence by DM+H criterion
max |DM_out - DM_in|         :     0.0000013551
max |H_out - H_in|      (eV) :     0.0000445892
SCF cycle converged after 15 iterations

Using DM_out to compute the final energy and forces
No. of atoms with KB's overlaping orbs in proc 0. Max # of overlaps:     206     421

siesta: E_KS(eV) =           -12703.5676

siesta: E_KS - E_eggbox =    -12703.5676

siesta: Atomic forces (eV/Ang):
----------------------------------------
   Tot    0.000000    0.000000    0.000000
----------------------------------------
   Max    0.063907
   Res    0.015438    sqrt( Sum f_i^2 / 3N )
----------------------------------------
   Max    0.063907    constrained

Stress-tensor-Voigt (kbar):       -0.83        0.69        0.01       -0.00        0.00        0.00
(Free)E + p*V (eV/cell)   -12703.1760
Target enthalpy (eV/cell)   -12703.5676

siesta: Stress tensor (static) (eV/Ang**3):
        -0.000518   -0.000000    0.000000
        -0.000000    0.000431   -0.000000
         0.000000    0.000000    0.000004

siesta: Pressure (static):          0.04418011  kBar

siesta: Stress tensor (total) (eV/Ang**3):
        -0.000518   -0.000000    0.000000
        -0.000000    0.000431   -0.000000
         0.000000    0.000000    0.000004

siesta: Pressure (total):          0.04418011  kBar

cgvc: No target stress found, assuming hydrostatic MD.TargetPressure.

cgvc: Target stress (kBar)
cgvc:         0.000       0.000       0.000
cgvc:         0.000       0.000       0.000
cgvc:         0.000       0.000       0.000

iocg: Reading CG continuation file

                     ====================================
                        Begin CG opt. move =      1
                     ====================================
 Kpoints in:          390 . Kpoints trimmed:          383

siesta: k-grid: Number of k-points =   383
siesta: k-grid: Cutoff (effective) =    25.000 Ang
siesta: k-grid: Supercell and displacements
siesta: k-grid:   15   0   0      0.000
siesta: k-grid:    0  51   0      0.000
siesta: k-grid:    0   0   1      0.000

superc: Internal auxiliary supercell:     3 x     5 x     1  =      15
superc: Number of atoms, orbitals, and projectors:   1500  21900  26700

outcell: Unit cell vectors (Ang):
       32.650163    0.000000    0.000000
        0.000000    8.700268    0.000000
        0.000000    0.000000   50.000000

outcell: Cell vector modules (Ang)   :   32.650163    8.700268   50.000000
outcell: Cell angles (23,13,12) (deg):     90.0000     90.0000     90.0000
outcell: Cell volume (Ang**3)        :  14203.2581
<dSpData1D:S at geom step 1
  <sparsity:sparsity for geom step 1
    nrows_g=1460 nrows=96 sparsity=.0495 nnzs=105520, refcount: 7>
  <dData1D:(new from dSpData1D) n=105520, refcount: 1>
refcount: 1>
new_DM -- step:     2
Re-using DM from previous geometries...
Number of DMs in history: 1
 DM extrapolation coefficients: 
1   1.00000
New DM after history re-use:
<dSpData2D:SpM extrapolated using coords
  <sparsity:sparsity for geom step 1
    nrows_g=1460 nrows=96 sparsity=.0495 nnzs=105520, refcount: 9>
  <dData2D:(temp array for extrapolation) n=105520 m=1, refcount: 1>
refcount: 1>
No. of atoms with KB's overlaping orbs in proc 0. Max # of overlaps:     206     421
New grid distribution:   1
           1       1:  200    1:   14    1:   80
           2       1:  200    1:   14   81:  160
           3       1:  200    1:   14  161:  240
           4       1:  200    1:   14  241:  320
           5       1:  200   15:   28    1:   80
           6       1:  200   15:   28   81:  160
           7       1:  200   15:   28  161:  240
           8       1:  200   15:   28  241:  320
           9       1:  200   29:   41    1:   80
          10       1:  200   29:   41   81:  160
          11       1:  200   29:   41  161:  240
          12       1:  200   29:   41  241:  320
          13       1:  200   42:   54    1:   80
          14       1:  200   42:   54   81:  160
          15       1:  200   42:   54  161:  240
          16       1:  200   42:   54  241:  320

InitMesh: MESH =   400 x   108 x   640 =    27648000
InitMesh: (bp) =   200 x    54 x   320 =     3456000
InitMesh: Mesh cutoff (required, used) =   400.000   414.812 Ry
ExtMesh (bp) on 0 =   332 x   150 x   220 =    10956000
New grid distribution:   2
           1     151:  200    1:   54    8:   25
           2     151:  200    1:   54   26:  313
           3     101:  150    1:   54    1:    7
           4      51:  100    1:   54  314:  320
           5     101:  150    1:   54    8:   25
           6     101:  150    1:   54   26:  313
           7       1:   50    1:   54    1:    7
           8     151:  200    1:   54  314:  320
           9       1:   50    1:   54    8:   25
          10      51:  100    1:   54   26:  313
          11     151:  200    1:   54    1:    7
          12     101:  150    1:   54  314:  320
          13      51:  100    1:   54    8:   25
          14       1:   50    1:   54   26:  313
          15      51:  100    1:   54    1:    7
          16       1:   50    1:   54  314:  320
New grid distribution:   3
           1     151:  200    1:   54   18:   94
           2     101:  150    1:   54    1:   17
           3     151:  200    1:   54   95:  303
           4      51:  100    1:   54  304:  320
           5     101:  150    1:   54   18:   94
           6       1:   50    1:   54    1:   17
           7     101:  150    1:   54   95:  303
           8     151:  200    1:   54  304:  320
           9       1:   50    1:   54   18:   94
          10     151:  200    1:   54    1:   17
          11      51:  100    1:   54   95:  303
          12     101:  150    1:   54  304:  320
          13      51:  100    1:   54   18:   94
          14      51:  100    1:   54    1:   17
          15       1:   50    1:   54   95:  303
          16       1:   50    1:   54  304:  320
Setting up quadratic distribution...
ExtMesh (bp) on 0 =   182 x   190 x   158 =     5463640
PhiOnMesh: Number of (b)points on node 0 =                48600
PhiOnMesh: nlist on node 0 =              5133516

        iscf     Eharris(eV)        E_KS(eV)     FreeEng(eV)     dDmax    Ef(eV) dHmax(eV)
   scf:    1   -12703.643186   -12703.567730   -12703.567731  0.000759 -4.255496  0.012085
   scf:    2   -12703.566120   -12703.567286   -12703.567287  0.000390 -4.256806  0.031448
   scf:    3   -12703.567943   -12703.567810   -12703.567811  0.000290 -4.255969  0.001108
   scf:    4   -12703.567811   -12703.567811   -12703.567812  0.000016 -4.256123  0.000495
   scf:    5   -12703.567811   -12703.567811   -12703.567812  0.000013 -4.256234  0.000124
   scf:    6   -12703.567811   -12703.567811   -12703.567812  0.000003 -4.256254  0.000035

SCF Convergence by DM+H criterion
max |DM_out - DM_in|         :     0.0000028639
max |H_out - H_in|      (eV) :     0.0000351691
SCF cycle converged after 6 iterations

Using DM_out to compute the final energy and forces
No. of atoms with KB's overlaping orbs in proc 0. Max # of overlaps:     206     421

siesta: E_KS(eV) =           -12703.5678

siesta: Atomic forces (eV/Ang):
----------------------------------------
   Tot    0.000000   -0.000000    0.000000
----------------------------------------
   Max    0.024545
   Res    0.007671    sqrt( Sum f_i^2 / 3N )
----------------------------------------
   Max    0.024545    constrained

Stress-tensor-Voigt (kbar):       -0.77        0.76        0.01       -0.00        0.00        0.00
(Free)E + p*V (eV/cell)   -12703.5430
Target enthalpy (eV/cell)   -12703.5678

siesta: Stress tensor (static) (eV/Ang**3):
        -0.000482   -0.000000    0.000000
        -0.000000    0.000472   -0.000000
         0.000000    0.000000    0.000004

siesta: Pressure (static):          0.00279673  kBar

siesta: Stress tensor (total) (eV/Ang**3):
        -0.000482   -0.000000    0.000000
        -0.000000    0.000472   -0.000000
         0.000000    0.000000    0.000004

siesta: Pressure (total):          0.00279673  kBar

cgvc: Finished line minimization   24.  Mean atomic displacement =    0.0010

                     ====================================
                        Begin CG opt. move =      2
                     ====================================
 Kpoints in:          390 . Kpoints trimmed:          383

siesta: k-grid: Number of k-points =   383
siesta: k-grid: Cutoff (effective) =    25.000 Ang
siesta: k-grid: Supercell and displacements
siesta: k-grid:   15   0   0      0.000
siesta: k-grid:    0  51   0      0.000
siesta: k-grid:    0   0   1      0.000

superc: Internal auxiliary supercell:     3 x     5 x     1  =      15
superc: Number of atoms, orbitals, and projectors:   1500  21900  26700

outcell: Unit cell vectors (Ang):
       32.649271    0.000000    0.000000
        0.000000    8.700030    0.000000
        0.000000    0.000000   50.000000

outcell: Cell vector modules (Ang)   :   32.649271    8.700030   50.000000
outcell: Cell angles (23,13,12) (deg):     90.0000     90.0000     90.0000
outcell: Cell volume (Ang**3)        :  14202.4818
<dSpData1D:S at geom step 2
  <sparsity:sparsity for geom step 2
    nrows_g=1460 nrows=96 sparsity=.0495 nnzs=105520, refcount: 7>
  <dData1D:(new from dSpData1D) n=105520, refcount: 1>
refcount: 1>
new_DM -- step:     3
Re-using DM from previous geometries...
Number of DMs in history: 1
 DM extrapolation coefficients: 
1   1.00000
New DM after history re-use:
<dSpData2D:SpM extrapolated using coords
  <sparsity:sparsity for geom step 2
    nrows_g=1460 nrows=96 sparsity=.0495 nnzs=105520, refcount: 9>
  <dData2D:(temp array for extrapolation) n=105520 m=1, refcount: 1>
refcount: 1>
No. of atoms with KB's overlaping orbs in proc 0. Max # of overlaps:     206     421
New grid distribution:   1
           1       1:  200    1:   14    1:   80
           2       1:  200    1:   14   81:  160
           3       1:  200    1:   14  161:  240
           4       1:  200    1:   14  241:  320
           5       1:  200   15:   28    1:   80
           6       1:  200   15:   28   81:  160
           7       1:  200   15:   28  161:  240
           8       1:  200   15:   28  241:  320
           9       1:  200   29:   41    1:   80
          10       1:  200   29:   41   81:  160
          11       1:  200   29:   41  161:  240
          12       1:  200   29:   41  241:  320
          13       1:  200   42:   54    1:   80
          14       1:  200   42:   54   81:  160
          15       1:  200   42:   54  161:  240
          16       1:  200   42:   54  241:  320

InitMesh: MESH =   400 x   108 x   640 =    27648000
InitMesh: (bp) =   200 x    54 x   320 =     3456000
InitMesh: Mesh cutoff (required, used) =   400.000   414.834 Ry
ExtMesh (bp) on 0 =   332 x   150 x   220 =    10956000
New grid distribution:   2
           1     151:  200    1:   54    8:   25
           2     151:  200    1:   54   26:  313
           3     101:  150    1:   54    1:    7
           4      51:  100    1:   54  314:  320
           5     101:  150    1:   54    8:   25
           6     101:  150    1:   54   26:  313
           7       1:   50    1:   54    1:    7
           8     151:  200    1:   54  314:  320
           9       1:   50    1:   54    8:   25
          10      51:  100    1:   54   26:  313
          11     151:  200    1:   54    1:    7
          12     101:  150    1:   54  314:  320
          13      51:  100    1:   54    8:   25
          14       1:   50    1:   54   26:  313
          15      51:  100    1:   54    1:    7
          16       1:   50    1:   54  314:  320
New grid distribution:   3
           1     151:  200    1:   54   18:   94
           2     101:  150    1:   54    1:   17
           3     151:  200    1:   54   95:  303
           4      51:  100    1:   54  304:  320
           5     101:  150    1:   54   18:   94
           6       1:   50    1:   54    1:   17
           7     101:  150    1:   54   95:  303
           8     151:  200    1:   54  304:  320
           9       1:   50    1:   54   18:   94
          10     151:  200    1:   54    1:   17
          11      51:  100    1:   54   95:  303
          12     101:  150    1:   54  304:  320
          13      51:  100    1:   54   18:   94
          14      51:  100    1:   54    1:   17
          15       1:   50    1:   54   95:  303
          16       1:   50    1:   54  304:  320
Setting up quadratic distribution...
ExtMesh (bp) on 0 =   182 x   190 x   158 =     5463640
PhiOnMesh: Number of (b)points on node 0 =                48600
PhiOnMesh: nlist on node 0 =              5133797

        iscf     Eharris(eV)        E_KS(eV)     FreeEng(eV)     dDmax    Ef(eV) dHmax(eV)
   scf:    1   -12703.557140   -12703.567998   -12703.567998  0.000460 -4.255844  0.018213
   scf:    2   -12703.565091   -12703.567168   -12703.567169  0.000718 -4.257204  0.055593
   scf:    3   -12703.568328   -12703.568105   -12703.568105  0.000540 -4.256285  0.000877
   scf:    4   -12703.568105   -12703.568105   -12703.568106  0.000006 -4.256306  0.000424
   scf:    5   -12703.568105   -12703.568105   -12703.568106  0.000005 -4.256315  0.000078

SCF Convergence by DM+H criterion
max |DM_out - DM_in|         :     0.0000053166
max |H_out - H_in|      (eV) :     0.0000782214
SCF cycle converged after 5 iterations

Using DM_out to compute the final energy and forces
No. of atoms with KB's overlaping orbs in proc 0. Max # of overlaps:     206     421

siesta: E_KS(eV) =           -12703.5681

siesta: Atomic forces (eV/Ang):
----------------------------------------
   Tot    0.000000   -0.000000    0.000000
----------------------------------------
   Max    0.020309
   Res    0.006707    sqrt( Sum f_i^2 / 3N )
----------------------------------------
   Max    0.020309    constrained

Stress-tensor-Voigt (kbar):       -0.77        0.74        0.01        0.00       -0.00       -0.00
(Free)E + p*V (eV/cell)   -12703.4973
Target enthalpy (eV/cell)   -12703.5681

siesta: Stress tensor (static) (eV/Ang**3):
        -0.000482    0.000000   -0.000000
         0.000000    0.000463   -0.000000
        -0.000000   -0.000000    0.000004

siesta: Pressure (static):          0.00798558  kBar

siesta: Stress tensor (total) (eV/Ang**3):
        -0.000482    0.000000   -0.000000
         0.000000    0.000463   -0.000000
        -0.000000   -0.000000    0.000004

siesta: Pressure (total):          0.00798558  kBar

                     ====================================
                        Begin CG opt. move =      3
                     ====================================
 Kpoints in:          390 . Kpoints trimmed:          383

siesta: k-grid: Number of k-points =   383
siesta: k-grid: Cutoff (effective) =    25.000 Ang
siesta: k-grid: Supercell and displacements
siesta: k-grid:   15   0   0      0.000
siesta: k-grid:    0  51   0      0.000
siesta: k-grid:    0   0   1      0.000

superc: Internal auxiliary supercell:     3 x     5 x     1  =      15
superc: Number of atoms, orbitals, and projectors:   1500  21900  26700

outcell: Unit cell vectors (Ang):
       32.647843    0.000000    0.000000
        0.000000    8.699650    0.000000
        0.000000    0.000000   50.000000

outcell: Cell vector modules (Ang)   :   32.647843    8.699650   50.000000
outcell: Cell angles (23,13,12) (deg):     90.0000     90.0000     90.0000
outcell: Cell volume (Ang**3)        :  14201.2398
<dSpData1D:S at geom step 3
  <sparsity:sparsity for geom step 3
    nrows_g=1460 nrows=96 sparsity=.0495 nnzs=105520, refcount: 7>
  <dData1D:(new from dSpData1D) n=105520, refcount: 1>
refcount: 1>
new_DM -- step:     4
Re-using DM from previous geometries...
Number of DMs in history: 1
 DM extrapolation coefficients: 
1   1.00000
New DM after history re-use:
<dSpData2D:SpM extrapolated using coords
  <sparsity:sparsity for geom step 3
    nrows_g=1460 nrows=96 sparsity=.0495 nnzs=105520, refcount: 9>
  <dData2D:(temp array for extrapolation) n=105520 m=1, refcount: 1>
refcount: 1>
No. of atoms with KB's overlaping orbs in proc 0. Max # of overlaps:     206     421
New grid distribution:   1
           1       1:  200    1:   14    1:   80
           2       1:  200    1:   14   81:  160
           3       1:  200    1:   14  161:  240
           4       1:  200    1:   14  241:  320
           5       1:  200   15:   28    1:   80
           6       1:  200   15:   28   81:  160
           7       1:  200   15:   28  161:  240
           8       1:  200   15:   28  241:  320
           9       1:  200   29:   41    1:   80
          10       1:  200   29:   41   81:  160
          11       1:  200   29:   41  161:  240
          12       1:  200   29:   41  241:  320
          13       1:  200   42:   54    1:   80
          14       1:  200   42:   54   81:  160
          15       1:  200   42:   54  161:  240
          16       1:  200   42:   54  241:  320

InitMesh: MESH =   400 x   108 x   640 =    27648000
InitMesh: (bp) =   200 x    54 x   320 =     3456000
InitMesh: Mesh cutoff (required, used) =   400.000   414.871 Ry
ExtMesh (bp) on 0 =   332 x   150 x   220 =    10956000
New grid distribution:   2
           1     151:  200    1:   54    8:   25
           2     151:  200    1:   54   26:  313
           3     101:  150    1:   54    1:    7
           4      51:  100    1:   54  314:  320
           5     101:  150    1:   54    8:   25
           6     101:  150    1:   54   26:  313
           7       1:   50    1:   54    1:    7
           8     151:  200    1:   54  314:  320
           9       1:   50    1:   54    8:   25
          10      51:  100    1:   54   26:  313
          11     151:  200    1:   54    1:    7
          12     101:  150    1:   54  314:  320
          13      51:  100    1:   54    8:   25
          14       1:   50    1:   54   26:  313
          15      51:  100    1:   54    1:    7
          16       1:   50    1:   54  314:  320
New grid distribution:   3
           1     151:  200    1:   54   18:   94
           2     101:  150    1:   54    1:   17
           3     151:  200    1:   54   95:  303
           4      51:  100    1:   54  304:  320
           5     101:  150    1:   54   18:   94
           6       1:   50    1:   54    1:   17
           7     101:  150    1:   54   95:  303
           8     151:  200    1:   54  304:  320
           9       1:   50    1:   54   18:   94
          10     151:  200    1:   54    1:   17
          11      51:  100    1:   54   95:  303
          12     101:  150    1:   54  304:  320
          13      51:  100    1:   54   18:   94
          14      51:  100    1:   54    1:   17
          15       1:   50    1:   54   95:  303
          16       1:   50    1:   54  304:  320
Setting up quadratic distribution...
ExtMesh (bp) on 0 =   182 x   190 x   158 =     5463640
PhiOnMesh: Number of (b)points on node 0 =                48600
PhiOnMesh: nlist on node 0 =              5134411

        iscf     Eharris(eV)        E_KS(eV)     FreeEng(eV)     dDmax    Ef(eV) dHmax(eV)
   scf:    1   -12703.550001   -12703.567781   -12703.567782  0.000732 -4.255634  0.029210
   scf:    2   -12703.560325   -12703.565653   -12703.565654  0.001149 -4.257846  0.089024
   scf:    3   -12703.555502   -12703.561492   -12703.561493  0.000864 -4.256355  0.001441
   scf:    4   -12703.574621   -12703.568057   -12703.568058  0.000197 -4.256401  0.000731
   scf:    5   -12703.568057   -12703.568057   -12703.568058  0.000006 -4.256405  0.000329
   scf:    6   -12703.568057   -12703.568057   -12703.568058  0.000006 -4.256404  0.000101
   scf:    7   -12703.568057   -12703.568057   -12703.568058  0.000004 -4.256395  0.000039

SCF Convergence by DM+H criterion
max |DM_out - DM_in|         :     0.0000035494
max |H_out - H_in|      (eV) :     0.0000389616
SCF cycle converged after 7 iterations

Using DM_out to compute the final energy and forces
No. of atoms with KB's overlaping orbs in proc 0. Max # of overlaps:     206     421

siesta: E_KS(eV) =           -12703.5681

siesta: Atomic forces (eV/Ang):
----------------------------------------
   Tot   -0.000000   -0.000000    0.000000
----------------------------------------
   Max    0.054623
   Res    0.016434    sqrt( Sum f_i^2 / 3N )
----------------------------------------
   Max    0.054623    constrained

Stress-tensor-Voigt (kbar):       -0.77        0.72        0.01        0.00       -0.00       -0.00
(Free)E + p*V (eV/cell)   -12703.4252
Target enthalpy (eV/cell)   -12703.5681

siesta: Stress tensor (static) (eV/Ang**3):
        -0.000483    0.000000   -0.000000
         0.000000    0.000449    0.000000
        -0.000000   -0.000000    0.000004

siesta: Pressure (static):          0.01611209  kBar

siesta: Stress tensor (total) (eV/Ang**3):
        -0.000483    0.000000   -0.000000
         0.000000    0.000449    0.000000
        -0.000000   -0.000000    0.000004

siesta: Pressure (total):          0.01611209  kBar

                     ====================================
                        Begin CG opt. move =      4
                     ====================================
 Kpoints in:          390 . Kpoints trimmed:          383

siesta: k-grid: Number of k-points =   383
siesta: k-grid: Cutoff (effective) =    25.000 Ang
siesta: k-grid: Supercell and displacements
siesta: k-grid:   15   0   0      0.000
siesta: k-grid:    0  51   0      0.000
siesta: k-grid:    0   0   1      0.000

superc: Internal auxiliary supercell:     3 x     5 x     1  =      15
superc: Number of atoms, orbitals, and projectors:   1500  21900  26700

outcell: Unit cell vectors (Ang):
       32.648663    0.000000    0.000000
        0.000000    8.699868    0.000000
        0.000000    0.000000   50.000000

outcell: Cell vector modules (Ang)   :   32.648663    8.699868   50.000000
outcell: Cell angles (23,13,12) (deg):     90.0000     90.0000     90.0000
outcell: Cell volume (Ang**3)        :  14201.9532
<dSpData1D:S at geom step 4
  <sparsity:sparsity for geom step 4
    nrows_g=1460 nrows=96 sparsity=.0495 nnzs=105520, refcount: 7>
  <dData1D:(new from dSpData1D) n=105520, refcount: 1>
refcount: 1>
new_DM -- step:     5
Re-using DM from previous geometries...
Number of DMs in history: 1
 DM extrapolation coefficients: 
1   1.00000
New DM after history re-use:
<dSpData2D:SpM extrapolated using coords
  <sparsity:sparsity for geom step 4
    nrows_g=1460 nrows=96 sparsity=.0495 nnzs=105520, refcount: 9>
  <dData2D:(temp array for extrapolation) n=105520 m=1, refcount: 1>
refcount: 1>
No. of atoms with KB's overlaping orbs in proc 0. Max # of overlaps:     206     421
New grid distribution:   1
           1       1:  200    1:   14    1:   80
           2       1:  200    1:   14   81:  160
           3       1:  200    1:   14  161:  240
           4       1:  200    1:   14  241:  320
           5       1:  200   15:   28    1:   80
           6       1:  200   15:   28   81:  160
           7       1:  200   15:   28  161:  240
           8       1:  200   15:   28  241:  320
           9       1:  200   29:   41    1:   80
          10       1:  200   29:   41   81:  160
          11       1:  200   29:   41  161:  240
          12       1:  200   29:   41  241:  320
          13       1:  200   42:   54    1:   80
          14       1:  200   42:   54   81:  160
          15       1:  200   42:   54  161:  240
          16       1:  200   42:   54  241:  320

InitMesh: MESH =   400 x   108 x   640 =    27648000
InitMesh: (bp) =   200 x    54 x   320 =     3456000
InitMesh: Mesh cutoff (required, used) =   400.000   414.850 Ry
ExtMesh (bp) on 0 =   332 x   150 x   220 =    10956000
New grid distribution:   2
           1     151:  200    1:   54    8:   25
           2     151:  200    1:   54   26:  313
           3     101:  150    1:   54    1:    7
           4      51:  100    1:   54  314:  320
           5     101:  150    1:   54    8:   25
           6     101:  150    1:   54   26:  313
           7       1:   50    1:   54    1:    7
           8     151:  200    1:   54  314:  320
           9       1:   50    1:   54    8:   25
          10      51:  100    1:   54   26:  313
          11     151:  200    1:   54    1:    7
          12     101:  150    1:   54  314:  320
          13      51:  100    1:   54    8:   25
          14       1:   50    1:   54   26:  313
          15      51:  100    1:   54    1:    7
          16       1:   50    1:   54  314:  320
New grid distribution:   3
           1     151:  200    1:   54   18:   94
           2     101:  150    1:   54    1:   17
           3     151:  200    1:   54   95:  303
           4      51:  100    1:   54  304:  320
           5     101:  150    1:   54   18:   94
           6       1:   50    1:   54    1:   17
           7     101:  150    1:   54   95:  303
           8     151:  200    1:   54  304:  320
           9       1:   50    1:   54   18:   94
          10     151:  200    1:   54    1:   17
          11      51:  100    1:   54   95:  303
          12     101:  150    1:   54  304:  320
          13      51:  100    1:   54   18:   94
          14      51:  100    1:   54    1:   17
          15       1:   50    1:   54   95:  303
          16       1:   50    1:   54  304:  320
Setting up quadratic distribution...
ExtMesh (bp) on 0 =   182 x   190 x   158 =     5463640
PhiOnMesh: Number of (b)points on node 0 =                48600
PhiOnMesh: nlist on node 0 =              5134025

        iscf     Eharris(eV)        E_KS(eV)     FreeEng(eV)     dDmax    Ef(eV) dHmax(eV)
   scf:    1   -12703.577745   -12703.568073   -12703.568074  0.000421 -4.256764  0.016766
   scf:    2   -12703.565619   -12703.567372   -12703.567373  0.000660 -4.255514  0.051180
   scf:    3   -12703.568352   -12703.568163   -12703.568164  0.000496 -4.256358  0.000804
   scf:    4   -12703.568164   -12703.568164   -12703.568164  0.000005 -4.256338  0.000388
   scf:    5   -12703.568164   -12703.568164   -12703.568165  0.000005 -4.256331  0.000072

SCF Convergence by DM+H criterion
max |DM_out - DM_in|         :     0.0000049406
max |H_out - H_in|      (eV) :     0.0000720612
SCF cycle converged after 5 iterations

Using DM_out to compute the final energy and forces
No. of atoms with KB's overlaping orbs in proc 0. Max # of overlaps:     206     421

siesta: E_KS(eV) =           -12703.5682

siesta: Atomic forces (eV/Ang):
----------------------------------------
   Tot    0.000000    0.000000    0.000000
----------------------------------------
   Max    0.031527
   Res    0.010169    sqrt( Sum f_i^2 / 3N )
----------------------------------------
   Max    0.031527    constrained

Stress-tensor-Voigt (kbar):       -0.77        0.73        0.01        0.00        0.00       -0.00
(Free)E + p*V (eV/cell)   -12703.4735
Target enthalpy (eV/cell)   -12703.5682

siesta: Stress tensor (static) (eV/Ang**3):
        -0.000481    0.000000   -0.000000
         0.000000    0.000458   -0.000000
        -0.000000    0.000000    0.000004

siesta: Pressure (static):          0.01067694  kBar

siesta: Stress tensor (total) (eV/Ang**3):
        -0.000481    0.000000   -0.000000
         0.000000    0.000458   -0.000000
        -0.000000    0.000000    0.000004

siesta: Pressure (total):          0.01067694  kBar

cgvc: Finished line minimization   25.  Mean atomic displacement =    0.0017

                     ====================================
                        Begin CG opt. move =      5
                     ====================================
 Kpoints in:          390 . Kpoints trimmed:          383

siesta: k-grid: Number of k-points =   383
siesta: k-grid: Cutoff (effective) =    25.000 Ang
siesta: k-grid: Supercell and displacements
siesta: k-grid:   15   0   0      0.000
siesta: k-grid:    0  51   0      0.000
siesta: k-grid:    0   0   1      0.000

superc: Internal auxiliary supercell:     3 x     5 x     1  =      15
superc: Number of atoms, orbitals, and projectors:   1500  21900  26700

outcell: Unit cell vectors (Ang):
       32.651668    0.000000    0.000000
        0.000000    8.700669    0.000000
        0.000000    0.000000   50.000000

outcell: Cell vector modules (Ang)   :   32.651668    8.700669   50.000000
outcell: Cell angles (23,13,12) (deg):     90.0000     90.0000     90.0000
outcell: Cell volume (Ang**3)        :  14204.5674
<dSpData1D:S at geom step 5
  <sparsity:sparsity for geom step 5
    nrows_g=1460 nrows=96 sparsity=.0495 nnzs=105520, refcount: 7>
  <dData1D:(new from dSpData1D) n=105520, refcount: 1>
refcount: 1>
new_DM -- step:     6
Re-using DM from previous geometries...
Number of DMs in history: 1
 DM extrapolation coefficients: 
1   1.00000
New DM after history re-use:
<dSpData2D:SpM extrapolated using coords
  <sparsity:sparsity for geom step 5
    nrows_g=1460 nrows=96 sparsity=.0495 nnzs=105520, refcount: 9>
  <dData2D:(temp array for extrapolation) n=105520 m=1, refcount: 1>
refcount: 1>
No. of atoms with KB's overlaping orbs in proc 0. Max # of overlaps:     206     421
New grid distribution:   1
           1       1:  200    1:   14    1:   80
           2       1:  200    1:   14   81:  160
           3       1:  200    1:   14  161:  240
           4       1:  200    1:   14  241:  320
           5       1:  200   15:   28    1:   80
           6       1:  200   15:   28   81:  160
           7       1:  200   15:   28  161:  240
           8       1:  200   15:   28  241:  320
           9       1:  200   29:   41    1:   80
          10       1:  200   29:   41   81:  160
          11       1:  200   29:   41  161:  240
          12       1:  200   29:   41  241:  320
          13       1:  200   42:   54    1:   80
          14       1:  200   42:   54   81:  160
          15       1:  200   42:   54  161:  240
          16       1:  200   42:   54  241:  320

InitMesh: MESH =   400 x   108 x   640 =    27648000
InitMesh: (bp) =   200 x    54 x   320 =     3456000
InitMesh: Mesh cutoff (required, used) =   400.000   414.773 Ry
ExtMesh (bp) on 0 =   332 x   150 x   220 =    10956000
New grid distribution:   2
           1     151:  200    1:   54    8:   25
           2     151:  200    1:   54   26:  313
           3     101:  150    1:   54    1:    7
           4      51:  100    1:   54  314:  320
           5     101:  150    1:   54    8:   25
           6     101:  150    1:   54   26:  313
           7       1:   50    1:   54    1:    7
           8     151:  200    1:   54  314:  320
           9       1:   50    1:   54    8:   25
          10      51:  100    1:   54   26:  313
          11     151:  200    1:   54    1:    7
          12     101:  150    1:   54  314:  320
          13      51:  100    1:   54    8:   25
          14       1:   50    1:   54   26:  313
          15      51:  100    1:   54    1:    7
          16       1:   50    1:   54  314:  320
New grid distribution:   3
           1     151:  200    1:   54   18:   94
           2     101:  150    1:   54    1:   17
           3     151:  200    1:   54   95:  303
           4      51:  100    1:   54  304:  320
           5     101:  150    1:   54   18:   94
           6       1:   50    1:   54    1:   17
           7     101:  150    1:   54   95:  303
           8     151:  200    1:   54  304:  320
           9       1:   50    1:   54   18:   94
          10     151:  200    1:   54    1:   17
          11      51:  100    1:   54   95:  303
          12     101:  150    1:   54  304:  320
          13      51:  100    1:   54   18:   94
          14      51:  100    1:   54    1:   17
          15       1:   50    1:   54   95:  303
          16       1:   50    1:   54  304:  320
Setting up quadratic distribution...
ExtMesh (bp) on 0 =   182 x   190 x   158 =     5463640
PhiOnMesh: Number of (b)points on node 0 =                48600
PhiOnMesh: nlist on node 0 =              5133016

        iscf     Eharris(eV)        E_KS(eV)     FreeEng(eV)     dDmax    Ef(eV) dHmax(eV)
   scf:    1   -12703.658028   -12703.568479   -12703.568480  0.000549 -4.255512  0.022120
   scf:    2   -12703.565973   -12703.567771   -12703.567772  0.000632 -4.258572  0.055730
   scf:    3   -12703.568780   -12703.568581   -12703.568582  0.000479 -4.256633  0.001359
   scf:    4   -12703.568582   -12703.568582   -12703.568583  0.000022 -4.256859  0.000640
   scf:    5   -12703.568582   -12703.568582   -12703.568583  0.000020 -4.257030  0.000184
   scf:    6   -12703.568582   -12703.568582   -12703.568583  0.000004 -4.257044  0.000055

SCF Convergence by DM+H criterion
max |DM_out - DM_in|         :     0.0000043567
max |H_out - H_in|      (eV) :     0.0000552051
SCF cycle converged after 6 iterations

Using DM_out to compute the final energy and forces
No. of atoms with KB's overlaping orbs in proc 0. Max # of overlaps:     206     421

siesta: E_KS(eV) =           -12703.5686

siesta: Atomic forces (eV/Ang):
----------------------------------------
   Tot    0.000000   -0.000000    0.000000
----------------------------------------
   Max    0.025622
   Res    0.008064    sqrt( Sum f_i^2 / 3N )
----------------------------------------
   Max    0.025622    constrained

Stress-tensor-Voigt (kbar):       -0.70        0.82        0.01        0.00       -0.00       -0.00
(Free)E + p*V (eV/cell)   -12703.9334
Target enthalpy (eV/cell)   -12703.5686

siesta: Stress tensor (static) (eV/Ang**3):
        -0.000436    0.000000   -0.000000
         0.000000    0.000509   -0.000000
        -0.000000   -0.000000    0.000004

siesta: Pressure (static):         -0.04115233  kBar

siesta: Stress tensor (total) (eV/Ang**3):
        -0.000436    0.000000   -0.000000
         0.000000    0.000509   -0.000000
        -0.000000   -0.000000    0.000004

siesta: Pressure (total):         -0.04115233  kBar

                     ====================================
                        Begin CG opt. move =      6
                     ====================================
 Kpoints in:          390 . Kpoints trimmed:          383

siesta: k-grid: Number of k-points =   383
siesta: k-grid: Cutoff (effective) =    25.000 Ang
siesta: k-grid: Supercell and displacements
siesta: k-grid:   15   0   0      0.000
siesta: k-grid:    0  51   0      0.000
siesta: k-grid:    0   0   1      0.000

superc: Internal auxiliary supercell:     3 x     5 x     1  =      15
superc: Number of atoms, orbitals, and projectors:   1500  21900  26700

outcell: Unit cell vectors (Ang):
       32.656475    0.000000    0.000000
        0.000000    8.701950    0.000000
        0.000000    0.000000   50.000000

outcell: Cell vector modules (Ang)   :   32.656475    8.701950   50.000000
outcell: Cell angles (23,13,12) (deg):     90.0000     90.0000     90.0000
outcell: Cell volume (Ang**3)        :  14208.7506
<dSpData1D:S at geom step 6
  <sparsity:sparsity for geom step 6
    nrows_g=1460 nrows=96 sparsity=.0495 nnzs=105520, refcount: 7>
  <dData1D:(new from dSpData1D) n=105520, refcount: 1>
refcount: 1>
new_DM -- step:     7
Re-using DM from previous geometries...
Number of DMs in history: 1
 DM extrapolation coefficients: 
1   1.00000
New DM after history re-use:
<dSpData2D:SpM extrapolated using coords
  <sparsity:sparsity for geom step 6
    nrows_g=1460 nrows=96 sparsity=.0495 nnzs=105520, refcount: 9>
  <dData2D:(temp array for extrapolation) n=105520 m=1, refcount: 1>
refcount: 1>
No. of atoms with KB's overlaping orbs in proc 0. Max # of overlaps:     206     421
New grid distribution:   1
           1       1:  200    1:   14    1:   80
           2       1:  200    1:   14   81:  160
           3       1:  200    1:   14  161:  240
           4       1:  200    1:   14  241:  320
           5       1:  200   15:   28    1:   80
           6       1:  200   15:   28   81:  160
           7       1:  200   15:   28  161:  240
           8       1:  200   15:   28  241:  320
           9       1:  200   29:   41    1:   80
          10       1:  200   29:   41   81:  160
          11       1:  200   29:   41  161:  240
          12       1:  200   29:   41  241:  320
          13       1:  200   42:   54    1:   80
          14       1:  200   42:   54   81:  160
          15       1:  200   42:   54  161:  240
          16       1:  200   42:   54  241:  320

InitMesh: MESH =   400 x   108 x   640 =    27648000
InitMesh: (bp) =   200 x    54 x   320 =     3456000
InitMesh: Mesh cutoff (required, used) =   400.000   414.651 Ry
ExtMesh (bp) on 0 =   332 x   150 x   220 =    10956000
New grid distribution:   2
           1     151:  200    1:   54    8:   25
           2     151:  200    1:   54   26:  313
           3     101:  150    1:   54    1:    7
           4      51:  100    1:   54  314:  320
           5     101:  150    1:   54    8:   25
           6     101:  150    1:   54   26:  313
           7       1:   50    1:   54    1:    7
           8     151:  200    1:   54  314:  320
           9       1:   50    1:   54    8:   25
          10      51:  100    1:   54   26:  313
          11     151:  200    1:   54    1:    7
          12     101:  150    1:   54  314:  320
          13      51:  100    1:   54    8:   25
          14       1:   50    1:   54   26:  313
          15      51:  100    1:   54    1:    7
          16       1:   50    1:   54  314:  320
New grid distribution:   3
           1     151:  200    1:   54   18:   94
           2     101:  150    1:   54    1:   17
           3     151:  200    1:   54   95:  303
           4      51:  100    1:   54  304:  320
           5     101:  150    1:   54   18:   94
           6       1:   50    1:   54    1:   17
           7     101:  150    1:   54   95:  303
           8     151:  200    1:   54  304:  320
           9       1:   50    1:   54   18:   94
          10     151:  200    1:   54    1:   17
          11      51:  100    1:   54   95:  303
          12     101:  150    1:   54  304:  320
          13      51:  100    1:   54   18:   94
          14      51:  100    1:   54    1:   17
          15       1:   50    1:   54   95:  303
          16       1:   50    1:   54  304:  320
Setting up quadratic distribution...
ExtMesh (bp) on 0 =   182 x   190 x   158 =     5463640
PhiOnMesh: Number of (b)points on node 0 =                48600
PhiOnMesh: nlist on node 0 =              5131654

        iscf     Eharris(eV)        E_KS(eV)     FreeEng(eV)     dDmax    Ef(eV) dHmax(eV)
   scf:    1   -12703.710752   -12703.567975   -12703.567976  0.000876 -4.255692  0.035519
   scf:    2   -12703.561523   -12703.566153   -12703.566154  0.001017 -4.260654  0.089441
   scf:    3   -12703.568751   -12703.568239   -12703.568239  0.000772 -4.257506  0.002185
   scf:    4   -12703.568241   -12703.568240   -12703.568241  0.000036 -4.257868  0.001022
   scf:    5   -12703.568241   -12703.568241   -12703.568241  0.000032 -4.258143  0.000295
   scf:    6   -12703.568241   -12703.568241   -12703.568241  0.000007 -4.258166  0.000088

SCF Convergence by DM+H criterion
max |DM_out - DM_in|         :     0.0000069478
max |H_out - H_in|      (eV) :     0.0000880033
SCF cycle converged after 6 iterations

Using DM_out to compute the final energy and forces
No. of atoms with KB's overlaping orbs in proc 0. Max # of overlaps:     206     421

siesta: E_KS(eV) =           -12703.5682

siesta: Atomic forces (eV/Ang):
----------------------------------------
   Tot   -0.000000   -0.000000    0.000000
----------------------------------------
   Max    0.046167
   Res    0.016710    sqrt( Sum f_i^2 / 3N )
----------------------------------------
   Max    0.046167    constrained

Stress-tensor-Voigt (kbar):       -0.58        0.95        0.01        0.00       -0.00        0.00
(Free)E + p*V (eV/cell)   -12704.6549
Target enthalpy (eV/cell)   -12703.5682

siesta: Stress tensor (static) (eV/Ang**3):
        -0.000365    0.000000    0.000000
         0.000000    0.000591   -0.000000
         0.000000   -0.000000    0.000004

siesta: Pressure (static):         -0.12253502  kBar

siesta: Stress tensor (total) (eV/Ang**3):
        -0.000365    0.000000    0.000000
         0.000000    0.000591   -0.000000
         0.000000   -0.000000    0.000004

siesta: Pressure (total):         -0.12253502  kBar

                     ====================================
                        Begin CG opt. move =      7
                     ====================================
 Kpoints in:          390 . Kpoints trimmed:          383

siesta: k-grid: Number of k-points =   383
siesta: k-grid: Cutoff (effective) =    25.000 Ang
siesta: k-grid: Supercell and displacements
siesta: k-grid:   15   0   0      0.000
siesta: k-grid:    0  51   0      0.000
siesta: k-grid:    0   0   1      0.000

superc: Internal auxiliary supercell:     3 x     5 x     1  =      15
superc: Number of atoms, orbitals, and projectors:   1500  21900  26700

outcell: Unit cell vectors (Ang):
       32.652706    0.000000    0.000000
        0.000000    8.700946    0.000000
        0.000000    0.000000   50.000000

outcell: Cell vector modules (Ang)   :   32.652706    8.700946   50.000000
outcell: Cell angles (23,13,12) (deg):     90.0000     90.0000     90.0000
outcell: Cell volume (Ang**3)        :  14205.4709
<dSpData1D:S at geom step 7
  <sparsity:sparsity for geom step 7
    nrows_g=1460 nrows=96 sparsity=.0495 nnzs=105520, refcount: 7>
  <dData1D:(new from dSpData1D) n=105520, refcount: 1>
refcount: 1>
new_DM -- step:     8
Re-using DM from previous geometries...
Number of DMs in history: 1
 DM extrapolation coefficients: 
1   1.00000
New DM after history re-use:
<dSpData2D:SpM extrapolated using coords
  <sparsity:sparsity for geom step 7
    nrows_g=1460 nrows=96 sparsity=.0495 nnzs=105520, refcount: 9>
  <dData2D:(temp array for extrapolation) n=105520 m=1, refcount: 1>
refcount: 1>
No. of atoms with KB's overlaping orbs in proc 0. Max # of overlaps:     206     421
New grid distribution:   1
           1       1:  200    1:   14    1:   80
           2       1:  200    1:   14   81:  160
           3       1:  200    1:   14  161:  240
           4       1:  200    1:   14  241:  320
           5       1:  200   15:   28    1:   80
           6       1:  200   15:   28   81:  160
           7       1:  200   15:   28  161:  240
           8       1:  200   15:   28  241:  320
           9       1:  200   29:   41    1:   80
          10       1:  200   29:   41   81:  160
          11       1:  200   29:   41  161:  240
          12       1:  200   29:   41  241:  320
          13       1:  200   42:   54    1:   80
          14       1:  200   42:   54   81:  160
          15       1:  200   42:   54  161:  240
          16       1:  200   42:   54  241:  320

InitMesh: MESH =   400 x   108 x   640 =    27648000
InitMesh: (bp) =   200 x    54 x   320 =     3456000
InitMesh: Mesh cutoff (required, used) =   400.000   414.747 Ry
ExtMesh (bp) on 0 =   332 x   150 x   220 =    10956000
New grid distribution:   2
           1     151:  200    1:   54    8:   25
           2     151:  200    1:   54   26:  313
           3     101:  150    1:   54    1:    7
           4      51:  100    1:   54  314:  320
           5     101:  150    1:   54    8:   25
           6     101:  150    1:   54   26:  313
           7       1:   50    1:   54    1:    7
           8     151:  200    1:   54  314:  320
           9       1:   50    1:   54    8:   25
          10      51:  100    1:   54   26:  313
          11     151:  200    1:   54    1:    7
          12     101:  150    1:   54  314:  320
          13      51:  100    1:   54    8:   25
          14       1:   50    1:   54   26:  313
          15      51:  100    1:   54    1:    7
          16       1:   50    1:   54  314:  320
New grid distribution:   3
           1     151:  200    1:   54   18:   94
           2     101:  150    1:   54    1:   17
           3     151:  200    1:   54   95:  303
           4      51:  100    1:   54  304:  320
           5     101:  150    1:   54   18:   94
           6       1:   50    1:   54    1:   17
           7     101:  150    1:   54   95:  303
           8     151:  200    1:   54  304:  320
           9       1:   50    1:   54   18:   94
          10     151:  200    1:   54    1:   17
          11      51:  100    1:   54   95:  303
          12     101:  150    1:   54  304:  320
          13      51:  100    1:   54   18:   94
          14      51:  100    1:   54    1:   17
          15       1:   50    1:   54   95:  303
          16       1:   50    1:   54  304:  320
Setting up quadratic distribution...
ExtMesh (bp) on 0 =   182 x   190 x   158 =     5463640
PhiOnMesh: Number of (b)points on node 0 =                48600
PhiOnMesh: nlist on node 0 =              5132795

        iscf     Eharris(eV)        E_KS(eV)     FreeEng(eV)     dDmax    Ef(eV) dHmax(eV)
   scf:    1   -12703.455721   -12703.568450   -12703.568451  0.000688 -4.259213  0.027860
   scf:    2   -12703.564484   -12703.567330   -12703.567331  0.000796 -4.255328  0.070146
   scf:    3   -12703.568927   -12703.568612   -12703.568613  0.000604 -4.257791  0.001719
   scf:    4   -12703.568614   -12703.568613   -12703.568614  0.000028 -4.257503  0.000810
   scf:    5   -12703.568613   -12703.568613   -12703.568614  0.000025 -4.257286  0.000230
   scf:    6   -12703.568613   -12703.568613   -12703.568614  0.000005 -4.257271  0.000069

SCF Convergence by DM+H criterion
max |DM_out - DM_in|         :     0.0000054138
max |H_out - H_in|      (eV) :     0.0000686290
SCF cycle converged after 6 iterations

Using DM_out to compute the final energy and forces
No. of atoms with KB's overlaping orbs in proc 0. Max # of overlaps:     206     421

siesta: E_KS(eV) =           -12703.5686

siesta: Atomic forces (eV/Ang):
----------------------------------------
   Tot    0.000000   -0.000000    0.000000
----------------------------------------
   Max    0.025761
   Res    0.009089    sqrt( Sum f_i^2 / 3N )
----------------------------------------
   Max    0.025761    constrained

Stress-tensor-Voigt (kbar):       -0.68        0.84        0.01        0.00       -0.00       -0.00
(Free)E + p*V (eV/cell)   -12704.0804
Target enthalpy (eV/cell)   -12703.5686

siesta: Stress tensor (static) (eV/Ang**3):
        -0.000422    0.000000   -0.000000
         0.000000    0.000526   -0.000000
        -0.000000   -0.000000    0.000004

siesta: Pressure (static):         -0.05772345  kBar

siesta: Stress tensor (total) (eV/Ang**3):
        -0.000422    0.000000   -0.000000
         0.000000    0.000526   -0.000000
        -0.000000   -0.000000    0.000004

siesta: Pressure (total):         -0.05772345  kBar

cgvc: Finished line minimization   26.  Mean atomic displacement =    0.0023

                     ====================================
                        Begin CG opt. move =      8
                     ====================================
 Kpoints in:          390 . Kpoints trimmed:          383

siesta: k-grid: Number of k-points =   383
siesta: k-grid: Cutoff (effective) =    25.000 Ang
siesta: k-grid: Supercell and displacements
siesta: k-grid:   15   0   0      0.000
siesta: k-grid:    0  51   0      0.000
siesta: k-grid:    0   0   1      0.000

superc: Internal auxiliary supercell:     3 x     5 x     1  =      15
superc: Number of atoms, orbitals, and projectors:   1500  21900  26700

outcell: Unit cell vectors (Ang):
       32.644647    0.000000    0.000000
        0.000000    8.698798    0.000000
        0.000000    0.000000   50.000000

outcell: Cell vector modules (Ang)   :   32.644647    8.698798   50.000000
outcell: Cell angles (23,13,12) (deg):     90.0000     90.0000     90.0000
outcell: Cell volume (Ang**3)        :  14198.4598
<dSpData1D:S at geom step 8
  <sparsity:sparsity for geom step 8
    nrows_g=1460 nrows=96 sparsity=.0495 nnzs=105520, refcount: 7>
  <dData1D:(new from dSpData1D) n=105520, refcount: 1>
refcount: 1>
[...]
1   1.00000
New DM after history re-use:
<dSpData2D:SpM extrapolated using coords
  <sparsity:sparsity for geom step 32
    nrows_g=1460 nrows=96 sparsity=.0496 nnzs=105716, refcount: 9>
  <dData2D:(temp array for extrapolation) n=105716 m=1, refcount: 1>
refcount: 1>
No. of atoms with KB's overlaping orbs in proc 0. Max # of overlaps:     205     421
New grid distribution:   1
           1       1:  200    1:   14    1:   80
           2       1:  200    1:   14   81:  160
           3       1:  200    1:   14  161:  240
           4       1:  200    1:   14  241:  320
           5       1:  200   15:   28    1:   80
           6       1:  200   15:   28   81:  160
           7       1:  200   15:   28  161:  240
           8       1:  200   15:   28  241:  320
           9       1:  200   29:   41    1:   80
          10       1:  200   29:   41   81:  160
          11       1:  200   29:   41  161:  240
          12       1:  200   29:   41  241:  320
          13       1:  200   42:   54    1:   80
          14       1:  200   42:   54   81:  160
          15       1:  200   42:   54  161:  240
          16       1:  200   42:   54  241:  320

InitMesh: MESH =   400 x   108 x   640 =    27648000
InitMesh: (bp) =   200 x    54 x   320 =     3456000
InitMesh: Mesh cutoff (required, used) =   400.000   415.076 Ry
ExtMesh (bp) on 0 =   332 x   150 x   220 =    10956000
New grid distribution:   2
           1     151:  200    1:   54    8:   25
           2     151:  200    1:   54   26:  313
           3     101:  150    1:   54    1:    7
           4      51:  100    1:   54  314:  320
           5     101:  150    1:   54    8:   25
           6     101:  150    1:   54   26:  313
           7       1:   50    1:   54    1:    7
           8     151:  200    1:   54  314:  320
           9       1:   50    1:   54    8:   25
          10      51:  100    1:   54   26:  313
          11     151:  200    1:   54    1:    7
          12     101:  150    1:   54  314:  320
          13      51:  100    1:   54    8:   25
          14       1:   50    1:   54   26:  313
          15      51:  100    1:   54    1:    7
          16       1:   50    1:   54  314:  320
New grid distribution:   3
           1     151:  200    1:   54   18:   94
           2     101:  150    1:   54    1:   17
           3     151:  200    1:   54   95:  303
           4      51:  100    1:   54  304:  320
           5     101:  150    1:   54   18:   94
           6       1:   50    1:   54    1:   17
           7     101:  150    1:   54   95:  303
           8     151:  200    1:   54  304:  320
           9       1:   50    1:   54   18:   94
          10     151:  200    1:   54    1:   17
          11      51:  100    1:   54   95:  303
          12     101:  150    1:   54  304:  320
          13      51:  100    1:   54   18:   94
          14      51:  100    1:   54    1:   17
          15       1:   50    1:   54   95:  303
          16       1:   50    1:   54  304:  320
Setting up quadratic distribution...
ExtMesh (bp) on 0 =   182 x   190 x   158 =     5463640
PhiOnMesh: Number of (b)points on node 0 =                48600
PhiOnMesh: nlist on node 0 =              5137249

        iscf     Eharris(eV)        E_KS(eV)     FreeEng(eV)     dDmax    Ef(eV) dHmax(eV)
   scf:    1   -12703.697471   -12703.573420   -12703.573421  0.000555 -4.256624  0.027035
   scf:    2   -12703.568840   -12703.572093   -12703.572093  0.000665 -4.258229  0.088305
   scf:    3   -12703.573895   -12703.573566   -12703.573567  0.000493 -4.257152  0.001826
   scf:    4   -12703.573568   -12703.573567   -12703.573568  0.000022 -4.257386  0.000800
   scf:    5   -12703.573567   -12703.573567   -12703.573568  0.000018 -4.257605  0.000158
   scf:    6   -12703.573567   -12703.573567   -12703.573568  0.000002 -4.257628  0.000030

SCF Convergence by DM+H criterion
max |DM_out - DM_in|         :     0.0000023159
max |H_out - H_in|      (eV) :     0.0000295590
SCF cycle converged after 6 iterations

Using DM_out to compute the final energy and forces
No. of atoms with KB's overlaping orbs in proc 0. Max # of overlaps:     205     421

siesta: E_KS(eV) =           -12703.5736

siesta: Atomic forces (eV/Ang):
----------------------------------------
   Tot   -0.000003    0.000002    0.000001
----------------------------------------
   Max    0.015823
   Res    0.004824    sqrt( Sum f_i^2 / 3N )
----------------------------------------
   Max    0.015823    constrained

Stress-tensor-Voigt (kbar):       -0.59        0.76        0.01       -0.00        0.00       -0.00
(Free)E + p*V (eV/cell)   -12704.0821
Target enthalpy (eV/cell)   -12703.5736

siesta: Stress tensor (static) (eV/Ang**3):
        -0.000371   -0.000000   -0.000000
        -0.000000    0.000474    0.000000
        -0.000000    0.000000    0.000004

siesta: Pressure (static):         -0.05740342  kBar

siesta: Stress tensor (total) (eV/Ang**3):
        -0.000371   -0.000000   -0.000000
        -0.000000    0.000474    0.000000
        -0.000000    0.000000    0.000004

siesta: Pressure (total):         -0.05740342  kBar

                     ====================================
                        Begin CG opt. move =     33
                     ====================================
 Kpoints in:          390 . Kpoints trimmed:          383

siesta: k-grid: Number of k-points =   383
siesta: k-grid: Cutoff (effective) =    25.000 Ang
siesta: k-grid: Supercell and displacements
siesta: k-grid:   15   0   0      0.000
siesta: k-grid:    0  51   0      0.000
siesta: k-grid:    0   0   1      0.000

superc: Internal auxiliary supercell:     3 x     5 x     1  =      15
superc: Number of atoms, orbitals, and projectors:   1500  21900  26700

outcell: Unit cell vectors (Ang):
       32.636972    0.000000    0.000000
        0.000000    8.696753    0.000000
        0.000000    0.000000   50.000000

outcell: Cell vector modules (Ang)   :   32.636972    8.696753   50.000000
outcell: Cell angles (23,13,12) (deg):     90.0000     90.0000     90.0000
outcell: Cell volume (Ang**3)        :  14191.7837
<dSpData1D:S at geom step 33
  <sparsity:sparsity for geom step 33
    nrows_g=1460 nrows=96 sparsity=.0496 nnzs=105825, refcount: 7>
  <dData1D:(new from dSpData1D) n=105825, refcount: 1>
refcount: 1>
new_DM -- step:    34
Re-using DM from previous geometries...
Number of DMs in history: 1
 DM extrapolation coefficients: 
1   1.00000
New DM after history re-use:
<dSpData2D:SpM extrapolated using coords
  <sparsity:sparsity for geom step 33
    nrows_g=1460 nrows=96 sparsity=.0496 nnzs=105825, refcount: 9>
  <dData2D:(temp array for extrapolation) n=105825 m=1, refcount: 1>
refcount: 1>
No. of atoms with KB's overlaping orbs in proc 0. Max # of overlaps:     205     421
New grid distribution:   1
           1       1:  200    1:   14    1:   80
           2       1:  200    1:   14   81:  160
           3       1:  200    1:   14  161:  240
           4       1:  200    1:   14  241:  320
           5       1:  200   15:   28    1:   80
           6       1:  200   15:   28   81:  160
           7       1:  200   15:   28  161:  240
           8       1:  200   15:   28  241:  320
           9       1:  200   29:   41    1:   80
          10       1:  200   29:   41   81:  160
          11       1:  200   29:   41  161:  240
          12       1:  200   29:   41  241:  320
          13       1:  200   42:   54    1:   80
          14       1:  200   42:   54   81:  160
          15       1:  200   42:   54  161:  240
          16       1:  200   42:   54  241:  320

InitMesh: MESH =   400 x   108 x   640 =    27648000
InitMesh: (bp) =   200 x    54 x   320 =     3456000
InitMesh: Mesh cutoff (required, used) =   400.000   415.147 Ry
ExtMesh (bp) on 0 =   332 x   150 x   220 =    10956000
New grid distribution:   2
           1     151:  200    1:   54    8:   25
           2     151:  200    1:   54   26:  313
           3     101:  150    1:   54    1:    7
           4      51:  100    1:   54  314:  320
           5     101:  150    1:   54    8:   25
           6     101:  150    1:   54   26:  313
           7       1:   50    1:   54    1:    7
           8     151:  200    1:   54  314:  320
           9       1:   50    1:   54    8:   25
          10      51:  100    1:   54   26:  313
          11     151:  200    1:   54    1:    7
          12     101:  150    1:   54  314:  320
          13      51:  100    1:   54    8:   25
          14       1:   50    1:   54   26:  313
          15      51:  100    1:   54    1:    7
          16       1:   50    1:   54  314:  320
New grid distribution:   3
           1     151:  200    1:   54   18:   94
           2     101:  150    1:   54    1:   17
           3     151:  200    1:   54   95:  303
           4      51:  100    1:   54  304:  320
           5     101:  150    1:   54   18:   94
           6       1:   50    1:   54    1:   17
           7     101:  150    1:   54   95:  303
           8     151:  200    1:   54  304:  320
           9       1:   50    1:   54   18:   94
          10     151:  200    1:   54    1:   17
          11      51:  100    1:   54   95:  303
          12     101:  150    1:   54  304:  320
          13      51:  100    1:   54   18:   94
          14      51:  100    1:   54    1:   17
          15       1:   50    1:   54   95:  303
          16       1:   50    1:   54  304:  320
Setting up quadratic distribution...
ExtMesh (bp) on 0 =   182 x   190 x   158 =     5463640
PhiOnMesh: Number of (b)points on node 0 =                48600
PhiOnMesh: nlist on node 0 =              5138116

        iscf     Eharris(eV)        E_KS(eV)     FreeEng(eV)     dDmax    Ef(eV) dHmax(eV)
   scf:    1   -12703.503015   -12703.573606   -12703.573606  0.007736 -4.257715  0.015357
   scf:    2   -12703.572132   -12703.573179   -12703.573179  0.000376 -4.256792  0.050109
   scf:    3   -12703.573759   -12703.573653   -12703.573653  0.000279 -4.257411  0.001043
   scf:    4   -12703.573653   -12703.573653   -12703.573654  0.000012 -4.257279  0.000458
   scf:    5   -12703.573653   -12703.573653   -12703.573654  0.000010 -4.257151  0.000089

SCF Convergence by DM+H criterion
max |DM_out - DM_in|         :     0.0000100969
max |H_out - H_in|      (eV) :     0.0000891616
SCF cycle converged after 5 iterations

Using DM_out to compute the final energy and forces
No. of atoms with KB's overlaping orbs in proc 0. Max # of overlaps:     205     421

siesta: E_KS(eV) =           -12703.5737

siesta: Atomic forces (eV/Ang):
----------------------------------------
   Tot   -0.000000    0.000000    0.000000
----------------------------------------
   Max    0.009942
   Res    0.002976    sqrt( Sum f_i^2 / 3N )
----------------------------------------
   Max    0.009942    constrained

Stress-tensor-Voigt (kbar):       -0.66        0.71        0.01       -0.00        0.00       -0.00
(Free)E + p*V (eV/cell)   -12703.7327
Target enthalpy (eV/cell)   -12703.5737

siesta: Stress tensor (static) (eV/Ang**3):
        -0.000413   -0.000000   -0.000000
        -0.000000    0.000443    0.000000
        -0.000000    0.000000    0.000004

siesta: Pressure (static):         -0.01795016  kBar

siesta: Stress tensor (total) (eV/Ang**3):
        -0.000413   -0.000000   -0.000000
        -0.000000    0.000443    0.000000
        -0.000000    0.000000    0.000004

siesta: Pressure (total):         -0.01795016  kBar

outcoor: Relaxed atomic coordinates (Ang):                  
    0.00000006    7.29656801    0.00000001   1       1  C
    1.24937109    6.56649254   -0.00000001   1       2  C
    1.24555136    5.11928305   -0.00000003   1       3  C
    0.00000006    4.38872932   -0.00000003   1       4  C
    1.24619727    2.21636596    0.00000000   1       5  C
    1.24953734    0.76893315    0.00000002   1       6  C
    2.49309892    7.29287189    0.00000000   1       7  C
    3.74010389    6.56176610    0.00000001   1       8  C
    3.70035931    5.15262818    0.00000001   1       9  C
    2.49465333    4.40267283   -0.00000001   1      10  C
    2.49583711    2.93335076   -0.00000001   1      11  C
    3.70229609    2.18419682   -0.00000000   1      12  C
    3.74025753    0.77422028    0.00000001   1      13  C
    2.49257531    0.04262459    0.00000001   1      14  C
    5.02006514    7.29952396    0.00000003   1      15  C
    6.26837463    6.61517167    0.00000001   1      16  C
    6.26103653    5.51294138   -0.00000001   2      17  H
    4.65460015    4.60230310    0.00000001   2      18  H
    4.65920848    2.73060857    0.00000003   2      19  H
    6.32693854    1.80937776    0.00000006   2      20  H
    6.28065071    0.70479421    0.00000002   1      21  C
    5.01608506    0.03888371    0.00000003   1      22  C
    7.51928165    7.27113022   -0.00000000   1      23  C
    8.79920437    6.49872839   -0.00000000   1      24  C
    8.82684913    5.06716116   -0.00000002   1      25  C
    7.88958086    4.48116501   -0.00000010   2      26  H
    8.42890516    0.59194081   -0.00000007   2      27  H
    7.49163692    0.00594467   -0.00000002   1      28  C
   10.05011146    7.15468691    0.00000002   1      29  C
   11.29842093    6.47033466    0.00000002   1      30  C
   11.30240091    5.03422206    0.00000003   1      31  C
   10.03783522    4.36831156    0.00000002   1      32  C
    9.99154743    3.26372802    0.00000001   2      33  H
   11.65927742    2.34249727   -0.00000010   2      34  H
   11.66388576    0.47080267   -0.00000009   2      35  H
   10.05744957   -0.43983551    0.00000001   2      36  H
   12.57838208    7.20809255    0.00000001   1      37  C
   13.82538706    6.47698662    0.00000004   1      38  C
   13.82591058    5.03048124    0.00000003   1      39  C
   12.57822851    4.29888548    0.00000002   1      40  C
   12.61618978    2.88890898   -0.00000002   1      41  C
   13.82264870    2.13975499    0.00000001   1      42  C
   13.82383258    0.67043300    0.00000001   1      43  C
   12.61812654   -0.07952237   -0.00000002   1      44  C
   15.06911484    7.20336609    0.00000001   1      45  C
   16.31848582    6.47329053    0.00000001   1      46  C
   16.31848581    5.03424295    0.00000001   1      47  C
   15.06894852    4.30417275    0.00000002   1      48  C
   15.07228867    2.85673982    0.00000002   1      49  C
   16.31848588    2.12647695    0.00000001   1      50  C
   16.31848586    0.68437652    0.00000002   1      51  C
   15.07293459   -0.04617725    0.00000002   1      52  C
   17.56785679    7.20336610    0.00000002   1      53  C
   18.81158468    6.47698670    0.00000004   1      54  C
   18.81106113    5.03048121    0.00000005   1      55  C
   17.56802305    4.30417270    0.00000003   1      56  C
   17.56468305    2.85673974    0.00000005   1      57  C
   18.81432291    2.13975501    0.00000004   1      58  C
   18.81313911    0.67043298    0.00000003   1      59  C
   17.56403712   -0.04617723    0.00000003   1      60  C
   20.05858966    7.20809252    0.00000001   1      61  C
   21.33855084    6.47033465    0.00000000   1      62  C
   21.33457082    5.03422196    0.00000001   1      63  C
   20.05874322    4.29888550    0.00000002   1      64  C
   20.02078176    2.88890896   -0.00000000   1      65  C
   20.97769430    2.34249727   -0.00000011   2      66  H
   20.97308595    0.47080267   -0.00000010   2      67  H
   20.01884505   -0.07952232   -0.00000002   1      68  C
   22.58686026    7.15468690   -0.00000000   1      69  C
   23.83776725    6.49872822   -0.00000000   1      70  C
   23.81012258    5.06716102   -0.00000001   1      71  C
   22.59913652    4.36831145    0.00000001   1      72  C
   22.64542421    3.26372802    0.00000001   2      73  H
   24.20806642    0.59194081    0.00000003   2      74  H
   22.57952215   -0.43983558   -0.00000001   2      75  H
   25.11769002    7.27113033   -0.00000001   1      76  C
   26.36859709    6.61517169    0.00000000   1      77  C
   26.37593513    5.51294129    0.00000007   2      78  H
   24.74739092    4.48116504   -0.00000003   2      79  H
   26.31003311    1.80937783    0.00000004   2      80  H
   26.35632089    0.70479430   -0.00000001   1      81  C
   25.14533473    0.00594479   -0.00000001   1      82  C
   27.61690663    7.29952399   -0.00000004   1      83  C
   28.89686775    6.56176605   -0.00000005   1      84  C
   28.93661238    5.15262810   -0.00000002   1      85  C
   27.98237149    4.60230309    0.00000002   2      86  H
   27.97776327    2.73060860   -0.00000003   2      87  H
   28.93467563    2.18419685   -0.00000001   1      88  C
   28.89671416    0.77422033   -0.00000001   1      89  C
   27.62088656    0.03888384   -0.00000003   1      90  C
   30.14387280    7.29287187   -0.00000003   1      91  C
   31.38760073    6.56649248   -0.00000002   1      92  C
   31.39142039    5.11928308   -0.00000003   1      93  C
   30.14231841    4.40267282   -0.00000001   1      94  C
   30.14113461    2.93335083    0.00000001   1      95  C
   31.39077452    2.21636597    0.00000002   1      96  C
   31.38743452    0.76893315    0.00000004   1      97  C
   30.14439638    0.04262465    0.00000001   1      98  C
   32.63697180    2.94662877    0.00000000   1      99  C
   32.63697178    0.03886287    0.00000002   1     100  C

outcell: Unit cell vectors (Ang):
       32.636972    0.000000    0.000000
        0.000000    8.696753    0.000000
        0.000000    0.000000   50.000000

outcell: Cell vector modules (Ang)   :   32.636972    8.696753   50.000000
outcell: Cell angles (23,13,12) (deg):     90.0000     90.0000     90.0000
outcell: Cell volume (Ang**3)        :  14191.7837

siesta: Program's energy decomposition (eV):
siesta: Ebs     =     -4426.434067
siesta: Eions   =     16518.285276
siesta: Ena     =      1777.016346
siesta: Ekin    =      9115.569599
siesta: Enl     =     -2860.098285
siesta: Eso     =         0.000000
siesta: Eldau   =         0.000000
siesta: DEna    =      -284.031616
siesta: DUscf   =        29.644085
siesta: DUext   =         0.000000
siesta: Enegf   =         0.000000
siesta: Exc     =     -3963.388507
siesta: eta*DQ  =         0.000000
siesta: Emadel  =         0.000000
siesta: Emeta   =         0.000000
siesta: Emolmec =         0.000000
siesta: Ekinion =         0.000000
siesta: Eharris =    -12703.573653
siesta: Etot    =    -12703.573653
siesta: FreeEng =    -12703.573654

siesta: Final energy (eV):
siesta:  Band Struct. =   -4426.434067
siesta:       Kinetic =    9115.569599
siesta:       Hartree =  147410.748340
siesta:       Eldau   =       0.000000
siesta:       Eso     =       0.000000
siesta:    Ext. field =       0.000000
siesta:       Enegf   =       0.000000
siesta:   Exch.-corr. =   -3963.388507
siesta:  Ion-electron = -303207.508698
siesta:       Ion-ion =  137941.005613
siesta:       Ekinion =       0.000000
siesta:         Total =  -12703.573653
siesta:         Fermi =      -4.257151

siesta: Stress tensor (static) (eV/Ang**3):
siesta:    -0.000413   -0.000000   -0.000000
siesta:    -0.000000    0.000443    0.000000
siesta:    -0.000000    0.000000    0.000004

siesta: Constrained stress tensor (static) (eV/Ang**3):
siesta:     0.000015    0.000000    0.000000
siesta:     0.000000    0.000015    0.000000
siesta:     0.000000    0.000000    0.000000

siesta: Cell volume =      14191.783745 Ang**3

siesta: Pressure (static):
siesta:                Solid            Molecule  Units
siesta:          -0.00000012         -0.00000020  Ry/Bohr**3
siesta:          -0.00001120         -0.00001850  eV/Ang**3
siesta:          -0.01795016         -0.02963706  kBar
(Free)E+ p_basis*V_orbitals  =      -12540.231017
(Free)Eharris+ p_basis*V_orbitals  =      -12540.231018

siesta: Electric dipole (a.u.)  =    0.000000    0.000000   -0.000000
siesta: Electric dipole (Debye) =    0.000000    0.000000   -0.000000
>> End of run:  11-JUN-2021  12:13:09
Job completed
Job completed
