Siesta Version  : 4.1.5
Architecture    : unknown
Compiler version: ifort (IFORT) 19.0.5.281 20190815
Compiler flags  : mpiifort -O2 -xhost -ip -fPIC -fp-model source
PP flags        : -DFC_HAVE_ABORT -DMPI -DCDF -DNCDF -DNCDF_4 -DGRID_DP -DPHI_GRID_SP
Libraries       : libncdf.a libfdict.a -L/scratch/scicomp/easybuild/CentOS/7.3.1611/Haswell/sofftware/netCDF-Fortran/4.5.2-iimpi-2019b/lib -lnetcdff -L/scratch/scicomp/easybuild/CentOS/7.3.1611/Haswell/software/cURL/7.66.0-GCCcore-8.3.0/lib -lcurl -L/scratch/scicomp/easybuild/CentOS/7.3.1611/Haswell/software/netCDF/4.7.1-iimpi-2019b/lib64 -lnetcdf -L/scratch/scicomp/easybuild/CentOS/7.3.1611/Haswell/software/HDF5/1.10.5-iimpi-2019b/lib -lhdf5hl_fortran -lhdf5_fortran -lhdf5_hl -lhdf5 -L/scratch/scicomp/easybuild/CentOS/7.3.1611/Haswell/software/imkl/2019.5.281-iimpi-2019b/mkl/lib/intel64 -lmkl_scalapack_lp64 -lmkl_intel_lp64 -lmkl_intel_thread -lmkl_core -lmkl_blacs_intelmpi_lp64 -liomp5 -lpthread -lm -ldl
PARALLEL version
NetCDF support
NetCDF-4 support

* Running on 24 nodes in parallel
>> Start of run:   5-JUL-2021  19:10:56

                           ***********************       
                           *  WELCOME TO SIESTA  *       
                           ***********************       

reinit: Reading from RUN.fdf

reinit: -----------------------------------------------------------------------
reinit: System Name: 
reinit: -----------------------------------------------------------------------
reinit: System Label: no2
reinit: -----------------------------------------------------------------------

initatom: Reading input for the pseudopotentials and atomic orbitals ----------
Species number:   1 Atomic number:    7 Label: N
Species number:   2 Atomic number:    8 Label: O
 
Ground state valence configuration:   2s02  2p03
Reading pseudopotential information in formatted form from N.psf

Valence configuration for pseudopotential generation:
2s( 2.00) rc: 1.48
2p( 3.00) rc: 1.48
3d( 0.00) rc: 1.48
4f( 0.00) rc: 1.48
Ground state valence configuration:   2s02  2p04
Reading pseudopotential information in formatted form from O.psf

Valence configuration for pseudopotential generation:
2s( 2.00) rc: 1.47
2p( 4.00) rc: 1.47
3d( 0.00) rc: 1.47
4f( 0.00) rc: 1.47
For N, standard SIESTA heuristics set lmxkb to 3
 (one more than the basis l, including polarization orbitals).
Use PS.lmax or PS.KBprojectors blocks to override.
For O, standard SIESTA heuristics set lmxkb to 3
 (one more than the basis l, including polarization orbitals).
Use PS.lmax or PS.KBprojectors blocks to override.

<basis_specs>
===============================================================================
N                    Z=   7    Mass=  14.010        Charge= 0.17977+309
Lmxo=1 Lmxkb= 3    BasisType=split      Semic=F
L=0  Nsemic=0  Cnfigmx=2
          i=1  nzeta=2  polorb=0  (2s)
            splnorm:   0.15000    
               vcte:    0.0000    
               rinn:    0.0000    
               qcoe:    0.0000    
               qyuk:    0.0000    
               qwid:   0.10000E-01
                rcs:    0.0000      0.0000    
            lambdas:    1.0000      1.0000    
L=1  Nsemic=0  Cnfigmx=2
          i=1  nzeta=2  polorb=1  (2p)
            splnorm:   0.15000    
               vcte:    0.0000    
               rinn:    0.0000    
               qcoe:    0.0000    
               qyuk:    0.0000    
               qwid:   0.10000E-01
                rcs:    0.0000      0.0000    
            lambdas:    1.0000      1.0000    
-------------------------------------------------------------------------------
L=0  Nkbl=1  erefs: 0.17977+309
L=1  Nkbl=1  erefs: 0.17977+309
L=2  Nkbl=1  erefs: 0.17977+309
L=3  Nkbl=1  erefs: 0.17977+309
===============================================================================
</basis_specs>

atom: Called for N                     (Z =   7)

read_vps: Pseudopotential generation method:
read_vps: ATM3      Troullier-Martins                       
Valence charge for ps generation:    5.00000

read_vps: Pseudopotential includes a core correction:
read_vps: Pseudo-core for xc-correction

xc_check: Exchange-correlation functional:
xc_check: GGA Perdew, Burke & Ernzerhof 1996
V l=0 = -2*Zval/r beyond r=  1.4606
V l=1 = -2*Zval/r beyond r=  1.4606
V l=2 = -2*Zval/r beyond r=  1.4606
V l=3 = -2*Zval/r beyond r=  1.4606
All V_l potentials equal beyond r=  1.4606
This should be close to max(r_c) in ps generation
All pots = -2*Zval/r beyond r=  1.4606

VLOCAL1: 99.0% of the norm of Vloc inside     20.347 Ry
VLOCAL1: 99.9% of the norm of Vloc inside     46.372 Ry
atom: Maximum radius for 4*pi*r*r*local-pseudopot. charge    1.76189
atom: Maximum radius for r*vlocal+2*Zval:    1.53550
GHOST: No ghost state for L =  0
GHOST: No ghost state for L =  1
GHOST: No ghost state for L =  2
GHOST: No ghost state for L =  3

KBgen: Kleinman-Bylander projectors: 
   l= 0   rc=  1.634559   el= -1.363963   Ekb=  5.296955   kbcos=  0.335621
   l= 1   rc=  1.614250   el= -0.521451   Ekb= -5.259161   kbcos= -0.433408
   l= 2   rc=  1.718383   el=  0.001991   Ekb= -1.271464   kbcos= -0.007566
   l= 3   rc=  1.761893   el=  0.003093   Ekb= -0.494769   kbcos= -0.001015

KBgen: Total number of Kleinman-Bylander projectors:   16
atom: -------------------------------------------------------------------------

atom: SANKEY-TYPE ORBITALS:
atom: Selected multiple-zeta basis: split     

SPLIT: Orbitals with angular momentum L= 0

SPLIT: Basis orbitals for state 2s

SPLIT: PAO cut-off radius determined from an
SPLIT: energy shift=  0.010000 Ry

   izeta = 1
                 lambda =    1.000000
                     rc =    3.970931
                 energy =   -1.354621
                kinetic =    1.185116
    potential(screened) =   -2.539737
       potential(ionic) =   -8.071102

   izeta = 2
                 rmatch =    2.905100
              splitnorm =    0.150000
                 energy =   -1.170738
                kinetic =    1.788055
    potential(screened) =   -2.958794
       potential(ionic) =   -8.878231

SPLIT: Orbitals with angular momentum L= 1

SPLIT: Basis orbitals for state 2p

SPLIT: PAO cut-off radius determined from an
SPLIT: energy shift=  0.010000 Ry

   izeta = 1
                 lambda =    1.000000
                     rc =    4.850185
                 energy =   -0.512432
                kinetic =    3.459728
    potential(screened) =   -3.972161
       potential(ionic) =   -9.314889

   izeta = 2
                 rmatch =    3.016124
              splitnorm =    0.150000
                 energy =   -0.328673
                kinetic =    5.066839
    potential(screened) =   -5.395512
       potential(ionic) =  -11.318381

POLgen: Perturbative polarization orbital with L=  2

POLgen: Polarization orbital for state 2p

   izeta = 1
                     rc =    4.850185
                 energy =    1.640616
                kinetic =    3.329188
    potential(screened) =   -1.688572
       potential(ionic) =   -6.032080
atom: Total number of Sankey-type orbitals: 13

atm_pop: Valence configuration (for local Pseudopot. screening):
 2s( 2.00)                                                            
 2p( 3.00)                                                            
Vna: chval, zval:    5.00000   5.00000

Vna:  Cut-off radius for the neutral-atom potential:   4.850185
comcore: Pseudo-core radius Rcore=  1.554824

atom: _________________________________________________________________________

<basis_specs>
===============================================================================
O                    Z=   8    Mass=  16.000        Charge= 0.17977+309
Lmxo=1 Lmxkb= 3    BasisType=split      Semic=F
L=0  Nsemic=0  Cnfigmx=2
          i=1  nzeta=2  polorb=0  (2s)
            splnorm:   0.15000    
               vcte:    0.0000    
               rinn:    0.0000    
               qcoe:    0.0000    
               qyuk:    0.0000    
               qwid:   0.10000E-01
                rcs:    0.0000      0.0000    
            lambdas:    1.0000      1.0000    
L=1  Nsemic=0  Cnfigmx=2
          i=1  nzeta=2  polorb=1  (2p)
            splnorm:   0.15000    
               vcte:    0.0000    
               rinn:    0.0000    
               qcoe:    0.0000    
               qyuk:    0.0000    
               qwid:   0.10000E-01
                rcs:    0.0000      0.0000    
            lambdas:    1.0000      1.0000    
-------------------------------------------------------------------------------
L=0  Nkbl=1  erefs: 0.17977+309
L=1  Nkbl=1  erefs: 0.17977+309
L=2  Nkbl=1  erefs: 0.17977+309
L=3  Nkbl=1  erefs: 0.17977+309
===============================================================================
</basis_specs>

atom: Called for O                     (Z =   8)

read_vps: Pseudopotential generation method:
read_vps: ATM3      Troullier-Martins                       
Valence charge for ps generation:    6.00000

read_vps: Pseudopotential includes a core correction:
read_vps: Pseudo-core for xc-correction

xc_check: Exchange-correlation functional:
xc_check: GGA Perdew, Burke & Ernzerhof 1996
V l=0 = -2*Zval/r beyond r=  1.4482
V l=1 = -2*Zval/r beyond r=  1.4482
V l=2 = -2*Zval/r beyond r=  1.4482
V l=3 = -2*Zval/r beyond r=  1.4482
All V_l potentials equal beyond r=  1.4482
This should be close to max(r_c) in ps generation
All pots = -2*Zval/r beyond r=  1.4482

VLOCAL1: 99.0% of the norm of Vloc inside     20.696 Ry
VLOCAL1: 99.9% of the norm of Vloc inside     47.167 Ry
atom: Maximum radius for 4*pi*r*r*local-pseudopot. charge    1.74697
atom: Maximum radius for r*vlocal+2*Zval:    1.52250
GHOST: No ghost state for L =  0
GHOST: No ghost state for L =  1
GHOST: No ghost state for L =  2
GHOST: No ghost state for L =  3

KBgen: Kleinman-Bylander projectors: 
   l= 0   rc=  1.620715   el= -1.757696   Ekb=  4.880948   kbcos=  0.293490
   l= 1   rc=  1.600578   el= -0.664256   Ekb= -6.909822   kbcos= -0.499892
   l= 2   rc=  1.703827   el=  0.002031   Ekb= -1.539219   kbcos= -0.006778
   l= 3   rc=  1.746967   el=  0.003153   Ekb= -0.568983   kbcos= -0.000967

KBgen: Total number of Kleinman-Bylander projectors:   16
atom: -------------------------------------------------------------------------

atom: SANKEY-TYPE ORBITALS:
atom: Selected multiple-zeta basis: split     

SPLIT: Orbitals with angular momentum L= 0

SPLIT: Basis orbitals for state 2s

SPLIT: PAO cut-off radius determined from an
SPLIT: energy shift=  0.010000 Ry

   izeta = 1
                 lambda =    1.000000
                     rc =    3.562532
                 energy =   -1.748399
                kinetic =    1.566246
    potential(screened) =   -3.314644
       potential(ionic) =  -11.226748

   izeta = 2
                 rmatch =    2.510382
              splitnorm =    0.150000
                 energy =   -1.500881
                kinetic =    2.383646
    potential(screened) =   -3.884527
       potential(ionic) =  -12.394458

SPLIT: Orbitals with angular momentum L= 1

SPLIT: Basis orbitals for state 2p

SPLIT: PAO cut-off radius determined from an
SPLIT: energy shift=  0.010000 Ry

   izeta = 1
                 lambda =    1.000000
                     rc =    4.351355
                 energy =   -0.655119
                kinetic =    4.580853
    potential(screened) =   -5.235971
       potential(ionic) =  -12.870995

   izeta = 2
                 rmatch =    2.606321
              splitnorm =    0.150000
                 energy =   -0.413552
                kinetic =    6.669338
    potential(screened) =   -7.082890
       potential(ionic) =  -15.557652

POLgen: Perturbative polarization orbital with L=  2

POLgen: Polarization orbital for state 2p

   izeta = 1
                     rc =    4.351355
                 energy =    2.225694
                kinetic =    4.473409
    potential(screened) =   -2.247715
       potential(ionic) =   -8.402441
atom: Total number of Sankey-type orbitals: 13

atm_pop: Valence configuration (for local Pseudopot. screening):
 2s( 2.00)                                                            
 2p( 4.00)                                                            
Vna: chval, zval:    6.00000   6.00000

Vna:  Cut-off radius for the neutral-atom potential:   4.351355
comcore: Pseudo-core radius Rcore=  1.377587

atom: _________________________________________________________________________

prinput: Basis input ----------------------------------------------------------

PAO.BasisType split     

%block ChemicalSpeciesLabel
    1    7 N                       # Species index, atomic number, species label
    2    8 O                       # Species index, atomic number, species label
%endblock ChemicalSpeciesLabel

%block PAO.Basis                 # Define Basis set
N                     2                    # Species label, number of l-shells
 n=2   0   2                         # n, l, Nzeta 
   3.971      2.905   
   1.000      1.000   
 n=2   1   2 P   1                   # n, l, Nzeta, Polarization, NzetaPol
   4.850      3.016   
   1.000      1.000   
O                     2                    # Species label, number of l-shells
 n=2   0   2                         # n, l, Nzeta 
   3.563      2.510   
   1.000      1.000   
 n=2   1   2 P   1                   # n, l, Nzeta, Polarization, NzetaPol
   4.351      2.606   
   1.000      1.000   
%endblock PAO.Basis

prinput: ----------------------------------------------------------------------

Dumping basis to NetCDF file N.ion.nc
Dumping basis to NetCDF file O.ion.nc
coor:   Atomic-coordinates input format  =     Cartesian coordinates
coor:                                          (in Angstroms)

siesta: Atomic coordinates (Bohr) and species
siesta:     47.24317  47.24317  47.24317  1        1
siesta:     48.98456  46.50939  47.24317  2        2
siesta:     45.50179  46.50939  47.24317  2        3

siesta: System type = molecule  

initatomlists: Number of atoms, orbitals, and projectors:      3    39    48

siesta: ******************** Simulation parameters ****************************
siesta:
siesta: The following are some of the parameters of the simulation.
siesta: A complete list of the parameters used, including default values,
siesta: can be found in file out.fdf
siesta:
redata: Spin configuration                          = none
redata: Number of spin components                   = 1
redata: Time-Reversal Symmetry                      = T
redata: Spin spiral                                 = F
redata: Long output                                 =   F
redata: Number of Atomic Species                    =        2
redata: Charge density info will appear in .RHO file
redata: Write Mulliken Pop.                         = NO
redata: Matel table size (NRTAB)                    =     1024
redata: Mesh Cutoff                                 =   400.0000 Ry
redata: Net charge of the system                    =     0.0000 |e|
redata: Min. number of SCF Iter                     =        0
redata: Max. number of SCF Iter                     =      500
redata: SCF convergence failure will abort job
redata: SCF mix quantity                            = Hamiltonian
redata: Mix DM or H after convergence               =   F
redata: Recompute H after scf cycle                 =   F
redata: Mix DM in first SCF step                    =   T
redata: Write Pulay info on disk                    =   F
redata: New DM Occupancy tolerance                  = 0.000000000001
redata: No kicks to SCF
redata: DM Mixing Weight for Kicks                  =     0.5000
redata: Require Harris convergence for SCF          =   F
redata: Harris energy tolerance for SCF             =     0.000100 eV
redata: Require DM convergence for SCF              =   T
redata: DM tolerance for SCF                        =     0.000100
redata: Require EDM convergence for SCF             =   F
redata: EDM tolerance for SCF                       =     0.001000 eV
redata: Require H convergence for SCF               =   T
redata: Hamiltonian tolerance for SCF               =     0.000100 eV
redata: Require (free) Energy convergence for SCF   =   F
redata: (free) Energy tolerance for SCF             =     0.000100 eV
redata: Using Saved Data (generic)                  =   F
redata: Use continuation files for DM               =   F
redata: Neglect nonoverlap interactions             =   F
redata: Method of Calculation                       = Diagonalization
redata: Electronic Temperature                      =   299.9869 K
redata: Fix the spin of the system                  =   F
redata: Dynamics option                             = CG coord. optimization
redata: Variable cell                               =   F
redata: Use continuation files for CG               =   F
redata: Max atomic displ per move                   =     0.1058 Ang
redata: Maximum number of optimization moves        =     1000
redata: Force tolerance                             =     0.0100 eV/Ang
mix.SCF: Pulay mixing                            = Pulay
mix.SCF:    Variant                              = stable
mix.SCF:    History steps                        = 5
mix.SCF:    Linear mixing weight                 =     0.250000
mix.SCF:    Mixing weight                        =     0.250000
mix.SCF:    SVD condition                        = 0.1000E-07
redata: Save all siesta data in one NC              =   F
redata: ***********************************************************************

%block SCF.Mixers
  Pulay
%endblock SCF.Mixers

%block SCF.Mixer.Pulay
  # Mixing method
  method pulay
  variant stable

  # Mixing options
  weight 0.2500
  weight.linear 0.2500
  history 5
%endblock SCF.Mixer.Pulay
 
DM_history_depth set to one: no extrapolation allowed by default for geometry relaxation
Size of DM history Fstack: 1
Total number of electrons:    17.000000
Total ionic charge:    17.000000

* ProcessorY, Blocksize:    4   1


* Orbital distribution balance (max,min):     2     1

 Kpoints in:            1 . Kpoints trimmed:            1

siesta: k-grid: Number of k-points =     1
siesta: k-grid: Cutoff (effective) =    25.000 Ang
siesta: k-grid: Supercell and displacements
siesta: k-grid:    1   0   0      0.000
siesta: k-grid:    0   1   0      0.000
siesta: k-grid:    0   0   1      0.000
 
diag: Algorithm                                     = D&C
diag: Parallel over k                               =   F
diag: Use parallel 2D distribution                  =   T
diag: Parallel block-size                           = 1
diag: Parallel distribution                         =     4 x     6
diag: Used triangular part                          = Lower
diag: Absolute tolerance                            =  0.100E-15
diag: Orthogonalization factor                      =  0.100E-05
diag: Memory factor                                 =  1.0000
 
 
ts: **************************************************************
ts: Save H and S matrices                           =    F
ts: Save DM and EDM matrices                        =    F
ts: Only save the overlap matrix S                  =    F
ts: **************************************************************
 
************************ Begin: TS CHECKS AND WARNINGS ************************
************************ End: TS CHECKS AND WARNINGS **************************


                     ====================================
                        Begin CG opt. move =      0
                     ====================================

outcell: Unit cell vectors (Ang):
       50.000000    0.000000    0.000000
        0.000000   50.000000    0.000000
        0.000000    0.000000   50.000000

outcell: Cell vector modules (Ang)   :   50.000000   50.000000   50.000000
outcell: Cell angles (23,13,12) (deg):     90.0000     90.0000     90.0000
outcell: Cell volume (Ang**3)        : 125000.0000
<dSpData1D:S at geom step 0
  <sparsity:sparsity for geom step 0
    nrows_g=39 nrows=2 sparsity=.0513 nnzs=78, refcount: 7>
  <dData1D:(new from dSpData1D) n=78, refcount: 1>
refcount: 1>
new_DM -- step:     1
Initializing Density Matrix...
DM filled with atomic data:
<dSpData2D:DM initialized from atoms
  <sparsity:sparsity for geom step 0
    nrows_g=39 nrows=2 sparsity=.0513 nnzs=78, refcount: 8>
  <dData2D:DM n=78 m=1, refcount: 1>
refcount: 1>
No. of atoms with KB's overlaping orbs in proc 0. Max # of overlaps:       3      39
New grid distribution:   1
           1       1:  320    1:   80    1:   54
           2       1:  320    1:   80   55:  108
           3       1:  320    1:   80  109:  161
           4       1:  320    1:   80  162:  214
           5       1:  320    1:   80  215:  267
           6       1:  320    1:   80  268:  320
           7       1:  320   81:  160    1:   54
           8       1:  320   81:  160   55:  108
           9       1:  320   81:  160  109:  161
          10       1:  320   81:  160  162:  214
          11       1:  320   81:  160  215:  267
          12       1:  320   81:  160  268:  320
          13       1:  320  161:  240    1:   54
          14       1:  320  161:  240   55:  108
          15       1:  320  161:  240  109:  161
          16       1:  320  161:  240  162:  214
          17       1:  320  161:  240  215:  267
          18       1:  320  161:  240  268:  320
          19       1:  320  241:  320    1:   54
          20       1:  320  241:  320   55:  108
          21       1:  320  241:  320  109:  161
          22       1:  320  241:  320  162:  214
          23       1:  320  241:  320  215:  267
          24       1:  320  241:  320  268:  320

InitMesh: MESH =   640 x   640 x   640 =   262144000
InitMesh: (bp) =   320 x   320 x   320 =    32768000
InitMesh: Mesh cutoff (required, used) =   400.000   452.816 Ry
ExtMesh (bp) on 0 =   388 x   148 x   122 =     7005728
New grid distribution:   2
           1     161:  320  194:  320   72:  160
           2       1:  160  160:  320  161:  179
           3     161:  320    1:  131   73:  160
           4       1:  160  128:  159   72:  160
           5     161:  320    1:   80  175:  320
           6     161:  320  132:  159   73:  160
           7       1:  160    1:  159    1:   71
           8       1:  160    1:  127   72:  160
           9       1:  160  160:  196   71:  160
          10       1:  160    1:  159  161:  176
          11     161:  320   81:  159  175:  320
          12       1:  160   81:  159  177:  320
          13       1:  160    1:   80  177:  320
          14       1:  160  160:  320    1:   70
          15     161:  320  160:  193   72:  160
          16       1:  160  160:  240  180:  320
          17     161:  320  160:  240  178:  320
          18     161:  320    1:  159  161:  174
          19     161:  320  160:  320    1:   71
          20       1:  160  197:  320   71:  160
          21     161:  320    1:  159    1:   72
          22     161:  320  160:  320  161:  177
          23     161:  320  241:  320  178:  320
          24       1:  160  241:  320  180:  320
New grid distribution:   3
           1     161:  320  160:  196   71:  160
           2       1:  160    1:  122   71:  160
           3     161:  320    1:  124   71:  160
           4       1:  160    1:   80  181:  320
           5     161:  320    1:   80  180:  320
           6       1:  160    1:  159  161:  180
           7     161:  320    1:  159    1:   70
           8       1:  160  160:  199   70:  160
           9       1:  160  123:  159   71:  160
          10       1:  160   81:  159  181:  320
          11       1:  160  160:  240  182:  320
          12     161:  320   81:  159  180:  320
          13     161:  320  160:  320    1:   70
          14       1:  160    1:  159    1:   70
          15       1:  160  200:  320   70:  160
          16     161:  320  160:  320  161:  180
          17     161:  320  160:  240  181:  320
          18       1:  160  241:  320  182:  320
          19       1:  160  160:  320    1:   69
          20     161:  320  125:  159   71:  160
          21     161:  320  197:  320   71:  160
          22       1:  160  160:  320  161:  181
          23     161:  320  241:  320  181:  320
          24     161:  320    1:  159  161:  179
Setting up quadratic distribution...
ExtMesh (bp) on 0 =   228 x   195 x   157 =     6980220
PhiOnMesh: Number of (b)points on node 0 =              1808480
PhiOnMesh: nlist on node 0 =                    0

stepf: Fermi-Dirac step function

siesta: Program's energy decomposition (eV):
siesta: Ebs     =      -274.011308
siesta: Eions   =      1625.654634
siesta: Ena     =       187.905736
siesta: Ekin    =       860.354830
siesta: Enl     =      -254.582307
siesta: Eso     =         0.000000
siesta: Edftu   =         0.000000
siesta: DEna    =       -19.287976
siesta: DUscf   =         2.648937
siesta: DUext   =         0.000000
siesta: Exc     =      -313.118127
siesta: eta*DQ  =         0.000000
siesta: Emadel  =         0.000000
siesta: Emeta   =         0.000000
siesta: Emolmec =         0.000000
siesta: Ekinion =         0.000000
siesta: Eharris =     -1142.865005
siesta: Etot    =     -1161.733539
siesta: FreeEng =     -1161.769377

        iscf     Eharris(eV)        E_KS(eV)     FreeEng(eV)     dDmax    Ef(eV) dHmax(eV)
   scf:    1    -1142.865005    -1161.733539    -1161.769377  1.041476 -3.519552  3.888081
timer: Routine,Calls,Time,% = IterSCF        1      18.242  63.58
   scf:    2    -1163.158041    -1162.561101    -1162.596938  0.067064 -3.285587  1.884493
   scf:    3    -1162.780079    -1162.710411    -1162.746248  0.065070 -2.924577  0.587074
   scf:    4    -1162.727140    -1162.720184    -1162.756021  0.038919 -2.695662  0.044452
   scf:    5    -1162.720927    -1162.720593    -1162.756430  0.006028 -2.682669  0.024174
   scf:    6    -1162.720624    -1162.720613    -1162.756450  0.000920 -2.684077  0.007646
   scf:    7    -1162.720619    -1162.720617    -1162.756454  0.000304 -2.684450  0.000459
   scf:    8    -1162.720617    -1162.720617    -1162.756454  0.000012 -2.684367  0.000226
   scf:    9    -1162.720617    -1162.720617    -1162.756454  0.000020 -2.684306  0.000065

SCF Convergence by DM+H criterion
max |DM_out - DM_in|         :     0.0000199390
max |H_out - H_in|      (eV) :     0.0000652812
SCF cycle converged after 9 iterations

Using DM_out to compute the final energy and forces
No. of atoms with KB's overlaping orbs in proc 0. Max # of overlaps:       3      39

siesta: E_KS(eV) =            -1162.7206

siesta: E_KS - E_eggbox =     -1162.7206

siesta: Atomic forces (eV/Ang):
----------------------------------------
   Tot    0.000000   -0.003122    0.000000
----------------------------------------
   Max   36.470070
   Res   20.469970    sqrt( Sum f_i^2 / 3N )
----------------------------------------
   Max   36.470070    constrained

Stress tensor Voigt[x,y,z,yz,xz,xy] (kbar):       -0.86       -0.14        0.00        0.00        0.00       -0.00
(Free)E + p*V (eV/cell)    -1136.8563
Target enthalpy (eV/cell)    -1162.7565

                     ====================================
                        Begin CG opt. move =      1
                     ====================================

outcell: Unit cell vectors (Ang):
       50.000000    0.000000    0.000000
        0.000000   50.000000    0.000000
        0.000000    0.000000   50.000000

outcell: Cell vector modules (Ang)   :   50.000000   50.000000   50.000000
outcell: Cell angles (23,13,12) (deg):     90.0000     90.0000     90.0000
outcell: Cell volume (Ang**3)        : 125000.0000
<dSpData1D:S at geom step 1
  <sparsity:sparsity for geom step 1
    nrows_g=39 nrows=2 sparsity=.0513 nnzs=78, refcount: 7>
  <dData1D:(new from dSpData1D) n=78, refcount: 1>
refcount: 1>
new_DM -- step:     2
Re-using DM from previous geometries...
Number of DMs in history: 1
 DM extrapolation coefficients: 
1   1.00000
New DM after history re-use:
<dSpData2D:SpM extrapolated using coords
  <sparsity:sparsity for geom step 1
    nrows_g=39 nrows=2 sparsity=.0513 nnzs=78, refcount: 9>
  <dData2D:(temp array for extrapolation) n=78 m=1, refcount: 1>
refcount: 1>
Note: For starting DM, Qtot, Tr[D*S] =         17.00000000         16.81854792
No. of atoms with KB's overlaping orbs in proc 0. Max # of overlaps:       3      39
New grid distribution:   1
           1       1:  320    1:   80    1:   54
           2       1:  320    1:   80   55:  108
           3       1:  320    1:   80  109:  161
           4       1:  320    1:   80  162:  214
           5       1:  320    1:   80  215:  267
           6       1:  320    1:   80  268:  320
           7       1:  320   81:  160    1:   54
           8       1:  320   81:  160   55:  108
           9       1:  320   81:  160  109:  161
          10       1:  320   81:  160  162:  214
          11       1:  320   81:  160  215:  267
          12       1:  320   81:  160  268:  320
          13       1:  320  161:  240    1:   54
          14       1:  320  161:  240   55:  108
          15       1:  320  161:  240  109:  161
          16       1:  320  161:  240  162:  214
          17       1:  320  161:  240  215:  267
          18       1:  320  161:  240  268:  320
          19       1:  320  241:  320    1:   54
          20       1:  320  241:  320   55:  108
          21       1:  320  241:  320  109:  161
          22       1:  320  241:  320  162:  214
          23       1:  320  241:  320  215:  267
          24       1:  320  241:  320  268:  320

InitMesh: MESH =   640 x   640 x   640 =   262144000
InitMesh: (bp) =   320 x   320 x   320 =    32768000
InitMesh: Mesh cutoff (required, used) =   400.000   452.816 Ry
ExtMesh (bp) on 0 =   388 x   148 x   122 =     7005728
New grid distribution:   2
           1     161:  320    1:  159    1:   72
           2     161:  320  196:  320   71:  160
           3       1:  160    1:  126   72:  160
           4       1:  160  127:  159   72:  160
           5     161:  320    1:   80  176:  320
           6     161:  320  131:  159   73:  160
           7       1:  160    1:  159    1:   71
           8     161:  320  160:  195   71:  160
           9       1:  160  160:  198   70:  160
          10       1:  160    1:  159  161:  177
          11     161:  320   81:  159  176:  320
          12       1:  160   81:  159  178:  320
          13     161:  320    1:  130   73:  160
          14     161:  320  160:  320    1:   70
          15       1:  160  199:  320   70:  160
          16       1:  160  160:  320  161:  180
          17     161:  320  160:  240  179:  320
          18       1:  160  160:  240  181:  320
          19       1:  160  160:  320    1:   69
          20     161:  320    1:  159  161:  175
          21       1:  160    1:   80  178:  320
          22     161:  320  160:  320  161:  178
          23     161:  320  241:  320  179:  320
          24       1:  160  241:  320  181:  320
New grid distribution:   3
           1     161:  320    1:  159    1:   71
           2       1:  160  241:  320  181:  320
           3     161:  320    1:  125   72:  160
           4       1:  160  125:  159   71:  160
           5     161:  320    1:   80  179:  320
           6     161:  320  160:  320  161:  179
           7       1:  160    1:  159    1:   70
           8       1:  160    1:  124   71:  160
           9       1:  160    1:   80  180:  320
          10       1:  160  160:  320  161:  180
          11     161:  320   81:  159  179:  320
          12       1:  160   81:  159  180:  320
          13     161:  320  160:  320    1:   70
          14     161:  320  126:  159   72:  160
          15       1:  160  160:  197   70:  160
          16       1:  160  160:  240  181:  320
          17     161:  320  160:  240  180:  320
          18       1:  160    1:  159  161:  179
          19       1:  160  160:  320    1:   69
          20       1:  160  198:  320   70:  160
          21     161:  320  196:  320   71:  160
          22     161:  320  160:  195   71:  160
          23     161:  320  241:  320  180:  320
          24     161:  320    1:  159  161:  178
Setting up quadratic distribution...
ExtMesh (bp) on 0 =   228 x   227 x   140 =     7245840
PhiOnMesh: Number of (b)points on node 0 =              1831680
PhiOnMesh: nlist on node 0 =                    0

        iscf     Eharris(eV)        E_KS(eV)     FreeEng(eV)     dDmax    Ef(eV) dHmax(eV)
   scf:    1    -1171.294217    -1167.215725    -1167.251562  0.196014 -3.816601  1.209356
   scf:    2    -1166.470291    -1167.039714    -1167.075551  0.089984 -4.234102  1.617617
   scf:    3    -1167.385780    -1167.296561    -1167.332398  0.051477 -4.048311  0.207907
   scf:    4    -1167.298783    -1167.297853    -1167.333690  0.010241 -4.121146  0.016652
   scf:    5    -1167.297947    -1167.297909    -1167.333746  0.001388 -4.122126  0.012769
   scf:    6    -1167.297910    -1167.297913    -1167.333750  0.000221 -4.119966  0.005100
   scf:    7    -1167.297915    -1167.297914    -1167.333752  0.000112 -4.119759  0.000164
   scf:    8    -1167.297914    -1167.297914    -1167.333752  0.000005 -4.119747  0.000087

SCF Convergence by DM+H criterion
max |DM_out - DM_in|         :     0.0000054086
max |H_out - H_in|      (eV) :     0.0000874830
SCF cycle converged after 8 iterations

Using DM_out to compute the final energy and forces
No. of atoms with KB's overlaping orbs in proc 0. Max # of overlaps:       3      39

siesta: E_KS(eV) =            -1167.2979

siesta: Atomic forces (eV/Ang):
----------------------------------------
   Tot    0.000000    0.036236    0.000000
----------------------------------------
   Max   16.741461
   Res    9.272789    sqrt( Sum f_i^2 / 3N )
----------------------------------------
   Max   16.741461    constrained

Stress tensor Voigt[x,y,z,yz,xz,xy] (kbar):       -0.42       -0.07        0.00        0.00       -0.00       -0.00
(Free)E + p*V (eV/cell)    -1154.5265
Target enthalpy (eV/cell)    -1167.3338

                     ====================================
                        Begin CG opt. move =      2
                     ====================================

outcell: Unit cell vectors (Ang):
       50.000000    0.000000    0.000000
        0.000000   50.000000    0.000000
        0.000000    0.000000   50.000000

outcell: Cell vector modules (Ang)   :   50.000000   50.000000   50.000000
outcell: Cell angles (23,13,12) (deg):     90.0000     90.0000     90.0000
outcell: Cell volume (Ang**3)        : 125000.0000
<dSpData1D:S at geom step 2
  <sparsity:sparsity for geom step 2
    nrows_g=39 nrows=2 sparsity=.0513 nnzs=78, refcount: 7>
  <dData1D:(new from dSpData1D) n=78, refcount: 1>
refcount: 1>
new_DM -- step:     3
Re-using DM from previous geometries...
Number of DMs in history: 1
 DM extrapolation coefficients: 
1   1.00000
New DM after history re-use:
<dSpData2D:SpM extrapolated using coords
  <sparsity:sparsity for geom step 2
    nrows_g=39 nrows=2 sparsity=.0513 nnzs=78, refcount: 9>
  <dData2D:(temp array for extrapolation) n=78 m=1, refcount: 1>
refcount: 1>
Note: For starting DM, Qtot, Tr[D*S] =         17.00000000         16.63940934
No. of atoms with KB's overlaping orbs in proc 0. Max # of overlaps:       3      39
New grid distribution:   1
           1       1:  320    1:   80    1:   54
           2       1:  320    1:   80   55:  108
           3       1:  320    1:   80  109:  161
           4       1:  320    1:   80  162:  214
           5       1:  320    1:   80  215:  267
           6       1:  320    1:   80  268:  320
           7       1:  320   81:  160    1:   54
           8       1:  320   81:  160   55:  108
           9       1:  320   81:  160  109:  161
          10       1:  320   81:  160  162:  214
          11       1:  320   81:  160  215:  267
          12       1:  320   81:  160  268:  320
          13       1:  320  161:  240    1:   54
          14       1:  320  161:  240   55:  108
          15       1:  320  161:  240  109:  161
          16       1:  320  161:  240  162:  214
          17       1:  320  161:  240  215:  267
          18       1:  320  161:  240  268:  320
          19       1:  320  241:  320    1:   54
          20       1:  320  241:  320   55:  108
          21       1:  320  241:  320  109:  161
          22       1:  320  241:  320  162:  214
          23       1:  320  241:  320  215:  267
          24       1:  320  241:  320  268:  320

InitMesh: MESH =   640 x   640 x   640 =   262144000
InitMesh: (bp) =   320 x   320 x   320 =    32768000
InitMesh: Mesh cutoff (required, used) =   400.000   452.816 Ry
ExtMesh (bp) on 0 =   388 x   148 x   122 =     7005728
New grid distribution:   2
           1     161:  320  197:  320   71:  160
           2       1:  160  160:  320  161:  181
           3       1:  160  125:  159   71:  160
           4       1:  160    1:   80  179:  320
           5     161:  320    1:   80  177:  320
           6     161:  320  128:  159   72:  160
           7       1:  160    1:  159    1:   70
           8       1:  160    1:  124   71:  160
           9       1:  160  160:  199   70:  160
          10       1:  160    1:  159  161:  178
          11     161:  320   81:  159  177:  320
          12       1:  160   81:  159  179:  320
          13     161:  320    1:  127   72:  160
          14       1:  160  160:  320    1:   69
          15     161:  320  160:  196   71:  160
          16       1:  160  160:  240  182:  320
          17     161:  320  160:  240  181:  320
          18     161:  320    1:  159  161:  176
          19     161:  320  160:  320    1:   70
          20       1:  160  200:  320   70:  160
          21     161:  320    1:  159    1:   71
          22     161:  320  160:  320  161:  180
          23     161:  320  241:  320  181:  320
          24       1:  160  241:  320  182:  320
New grid distribution:   3
           1     161:  320    1:  159    1:   72
           2     161:  320    1:  128   73:  160
           3       1:  160    1:  127   72:  160
           4     161:  320  160:  193   72:  160
           5     161:  320    1:   80  177:  320
           6       1:  160   81:  159  178:  320
           7       1:  160  128:  159   72:  160
           8       1:  160  160:  195   71:  160
           9       1:  160    1:   80  178:  320
          10       1:  160  160:  320  161:  179
          11     161:  320   81:  159  177:  320
          12     161:  320  129:  159   73:  160
          13     161:  320  160:  320    1:   71
          14       1:  160    1:  159    1:   71
          15       1:  160  196:  320   71:  160
          16     161:  320  160:  320  161:  177
          17     161:  320  160:  240  178:  320
          18       1:  160  160:  240  180:  320
          19       1:  160  160:  320    1:   70
          20       1:  160    1:  159  161:  177
          21     161:  320  194:  320   72:  160
          22     161:  320    1:  159  161:  176
          23     161:  320  241:  320  178:  320
          24       1:  160  241:  320  180:  320
Setting up quadratic distribution...
ExtMesh (bp) on 0 =   228 x   192 x   158 =     6916608
PhiOnMesh: Number of (b)points on node 0 =              1785600
PhiOnMesh: nlist on node 0 =                    0

        iscf     Eharris(eV)        E_KS(eV)     FreeEng(eV)     dDmax    Ef(eV) dHmax(eV)
   scf:    1    -1173.487129    -1168.773020    -1168.808857  0.220793 -5.380763  2.543163
   scf:    2    -1156.841191    -1165.420509    -1165.456347  0.249632 -5.536584  8.169551
   scf:    3    -1170.255192    -1169.285782    -1169.321619  0.179288 -5.576912  0.270020
   scf:    4    -1169.297649    -1169.293438    -1169.329275  0.021727 -5.759092  0.070225
   scf:    5    -1169.293771    -1169.293658    -1169.329495  0.002334 -5.738943  0.019505
   scf:    6    -1169.293707    -1169.293686    -1169.329523  0.000475 -5.736229  0.003075
   scf:    7    -1169.293688    -1169.293687    -1169.329524  0.000094 -5.736825  0.001806
   scf:    8    -1169.293687    -1169.293687    -1169.329524  0.000069 -5.736142  0.000250
   scf:    9    -1169.293687    -1169.293687    -1169.329524  0.000004 -5.736149  0.000165
   scf:   10    -1169.293687    -1169.293687    -1169.329524  0.000009 -5.736170  0.000009

SCF Convergence by DM+H criterion
max |DM_out - DM_in|         :     0.0000092612
max |H_out - H_in|      (eV) :     0.0000088544
SCF cycle converged after 10 iterations

Using DM_out to compute the final energy and forces
No. of atoms with KB's overlaping orbs in proc 0. Max # of overlaps:       3      39

siesta: E_KS(eV) =            -1169.2937

siesta: Atomic forces (eV/Ang):
----------------------------------------
   Tot   -0.000000   -0.011491    0.000000
----------------------------------------
   Max    1.881591
   Res    0.879537    sqrt( Sum f_i^2 / 3N )
----------------------------------------
   Max    1.881591    constrained

Stress tensor Voigt[x,y,z,yz,xz,xy] (kbar):       -0.03        0.01        0.00        0.00       -0.00        0.00
(Free)E + p*V (eV/cell)    -1169.0427
Target enthalpy (eV/cell)    -1169.3295

                     ====================================
                        Begin CG opt. move =      3
                     ====================================

outcell: Unit cell vectors (Ang):
       50.000000    0.000000    0.000000
        0.000000   50.000000    0.000000
        0.000000    0.000000   50.000000

outcell: Cell vector modules (Ang)   :   50.000000   50.000000   50.000000
outcell: Cell angles (23,13,12) (deg):     90.0000     90.0000     90.0000
outcell: Cell volume (Ang**3)        : 125000.0000
<dSpData1D:S at geom step 3
  <sparsity:sparsity for geom step 3
    nrows_g=39 nrows=2 sparsity=.0513 nnzs=78, refcount: 7>
  <dData1D:(new from dSpData1D) n=78, refcount: 1>
refcount: 1>
new_DM -- step:     4
Re-using DM from previous geometries...
Number of DMs in history: 1
 DM extrapolation coefficients: 
1   1.00000
New DM after history re-use:
<dSpData2D:SpM extrapolated using coords
  <sparsity:sparsity for geom step 3
    nrows_g=39 nrows=2 sparsity=.0513 nnzs=78, refcount: 9>
  <dData2D:(temp array for extrapolation) n=78 m=1, refcount: 1>
refcount: 1>
No. of atoms with KB's overlaping orbs in proc 0. Max # of overlaps:       3      39
New grid distribution:   1
           1       1:  320    1:   80    1:   54
           2       1:  320    1:   80   55:  108
           3       1:  320    1:   80  109:  161
           4       1:  320    1:   80  162:  214
           5       1:  320    1:   80  215:  267
           6       1:  320    1:   80  268:  320
           7       1:  320   81:  160    1:   54
           8       1:  320   81:  160   55:  108
           9       1:  320   81:  160  109:  161
          10       1:  320   81:  160  162:  214
          11       1:  320   81:  160  215:  267
          12       1:  320   81:  160  268:  320
          13       1:  320  161:  240    1:   54
          14       1:  320  161:  240   55:  108
          15       1:  320  161:  240  109:  161
          16       1:  320  161:  240  162:  214
          17       1:  320  161:  240  215:  267
          18       1:  320  161:  240  268:  320
          19       1:  320  241:  320    1:   54
          20       1:  320  241:  320   55:  108
          21       1:  320  241:  320  109:  161
          22       1:  320  241:  320  162:  214
          23       1:  320  241:  320  215:  267
          24       1:  320  241:  320  268:  320

InitMesh: MESH =   640 x   640 x   640 =   262144000
InitMesh: (bp) =   320 x   320 x   320 =    32768000
InitMesh: Mesh cutoff (required, used) =   400.000   452.816 Ry
ExtMesh (bp) on 0 =   388 x   148 x   122 =     7005728
New grid distribution:   2
           1     161:  320  197:  320   71:  160
           2       1:  160  160:  320  161:  181
           3       1:  160  125:  159   71:  160
           4       1:  160    1:   80  179:  320
           5     161:  320    1:   80  177:  320
           6     161:  320  128:  159   72:  160
           7       1:  160    1:  159    1:   70
           8       1:  160    1:  124   71:  160
           9       1:  160  160:  199   70:  160
          10       1:  160    1:  159  161:  178
          11     161:  320   81:  159  177:  320
          12       1:  160   81:  159  179:  320
          13     161:  320    1:  127   72:  160
          14       1:  160  160:  320    1:   69
          15     161:  320  160:  196   71:  160
          16       1:  160  160:  240  182:  320
          17     161:  320  160:  240  181:  320
          18     161:  320    1:  159  161:  176
          19     161:  320  160:  320    1:   70
          20       1:  160  200:  320   70:  160
          21     161:  320    1:  159    1:   71
          22     161:  320  160:  320  161:  180
          23     161:  320  241:  320  181:  320
          24       1:  160  241:  320  182:  320
New grid distribution:   3
           1     161:  320    1:  159    1:   72
           2       1:  160   81:  159  178:  320
           3     161:  320    1:  128   73:  160
           4     161:  320  160:  193   72:  160
           5     161:  320    1:   80  177:  320
           6       1:  160  127:  159   72:  160
           7       1:  160    1:  159    1:   71
           8       1:  160    1:  126   72:  160
           9       1:  160    1:   80  178:  320
          10       1:  160  160:  195   71:  160
          11     161:  320   81:  159  177:  320
          12     161:  320  129:  159   73:  160
          13     161:  320  160:  320    1:   71
          14       1:  160  241:  320  180:  320
          15       1:  160  196:  320   71:  160
          16     161:  320  160:  320  161:  177
          17     161:  320  160:  240  178:  320
          18       1:  160  160:  240  180:  320
          19       1:  160  160:  320    1:   70
          20       1:  160    1:  159  161:  177
          21     161:  320  194:  320   72:  160
          22       1:  160  160:  320  161:  179
          23     161:  320  241:  320  178:  320
          24     161:  320    1:  159  161:  176
Setting up quadratic distribution...
ExtMesh (bp) on 0 =   228 x   192 x   158 =     6916608
PhiOnMesh: Number of (b)points on node 0 =              1785600
PhiOnMesh: nlist on node 0 =                    0

        iscf     Eharris(eV)        E_KS(eV)     FreeEng(eV)     dDmax    Ef(eV) dHmax(eV)
   scf:    1    -1169.265050    -1169.293778    -1169.329615  0.001359 -5.730393  0.016654
   scf:    2    -1169.293316    -1169.293648    -1169.329486  0.001500 -5.729131  0.052379
   scf:    3    -1169.293836    -1169.293798    -1169.329635  0.001083 -5.729534  0.001198
   scf:    4    -1169.293798    -1169.293798    -1169.329635  0.000099 -5.728721  0.000084

SCF Convergence by DM+H criterion
max |DM_out - DM_in|         :     0.0000992729
max |H_out - H_in|      (eV) :     0.0000844448
SCF cycle converged after 4 iterations

Using DM_out to compute the final energy and forces
No. of atoms with KB's overlaping orbs in proc 0. Max # of overlaps:       3      39

siesta: E_KS(eV) =            -1169.2938

siesta: Atomic forces (eV/Ang):
----------------------------------------
   Tot    0.000000   -0.011594    0.000000
----------------------------------------
   Max    1.831397
   Res    0.874369    sqrt( Sum f_i^2 / 3N )
----------------------------------------
   Max    1.831397    constrained

Stress tensor Voigt[x,y,z,yz,xz,xy] (kbar):       -0.03        0.01        0.00        0.00        0.00        0.00
(Free)E + p*V (eV/cell)    -1168.9977
Target enthalpy (eV/cell)    -1169.3296

cgvc: Finished line minimization    1.  Mean atomic displacement =    0.1729

                     ====================================
                        Begin CG opt. move =      4
                     ====================================

outcell: Unit cell vectors (Ang):
       50.000000    0.000000    0.000000
        0.000000   50.000000    0.000000
        0.000000    0.000000   50.000000

outcell: Cell vector modules (Ang)   :   50.000000   50.000000   50.000000
outcell: Cell angles (23,13,12) (deg):     90.0000     90.0000     90.0000
outcell: Cell volume (Ang**3)        : 125000.0000
<dSpData1D:S at geom step 4
  <sparsity:sparsity for geom step 4
    nrows_g=39 nrows=2 sparsity=.0513 nnzs=78, refcount: 7>
  <dData1D:(new from dSpData1D) n=78, refcount: 1>
refcount: 1>
new_DM -- step:     5
Re-using DM from previous geometries...
Number of DMs in history: 1
 DM extrapolation coefficients: 
1   1.00000
New DM after history re-use:
<dSpData2D:SpM extrapolated using coords
  <sparsity:sparsity for geom step 4
    nrows_g=39 nrows=2 sparsity=.0513 nnzs=78, refcount: 9>
  <dData2D:(temp array for extrapolation) n=78 m=1, refcount: 1>
refcount: 1>
No. of atoms with KB's overlaping orbs in proc 0. Max # of overlaps:       3      39
New grid distribution:   1
           1       1:  320    1:   80    1:   54
           2       1:  320    1:   80   55:  108
           3       1:  320    1:   80  109:  161
           4       1:  320    1:   80  162:  214
           5       1:  320    1:   80  215:  267
           6       1:  320    1:   80  268:  320
           7       1:  320   81:  160    1:   54
           8       1:  320   81:  160   55:  108
           9       1:  320   81:  160  109:  161
          10       1:  320   81:  160  162:  214
          11       1:  320   81:  160  215:  267
          12       1:  320   81:  160  268:  320
          13       1:  320  161:  240    1:   54
          14       1:  320  161:  240   55:  108
          15       1:  320  161:  240  109:  161
          16       1:  320  161:  240  162:  214
          17       1:  320  161:  240  215:  267
          18       1:  320  161:  240  268:  320
          19       1:  320  241:  320    1:   54
          20       1:  320  241:  320   55:  108
          21       1:  320  241:  320  109:  161
          22       1:  320  241:  320  162:  214
          23       1:  320  241:  320  215:  267
          24       1:  320  241:  320  268:  320

InitMesh: MESH =   640 x   640 x   640 =   262144000
InitMesh: (bp) =   320 x   320 x   320 =    32768000
InitMesh: Mesh cutoff (required, used) =   400.000   452.816 Ry
ExtMesh (bp) on 0 =   388 x   148 x   122 =     7005728
New grid distribution:   2
           1       1:  160    1:  159    1:   70
           2       1:  160    1:  159  161:  178
           3       1:  160    1:  123   71:  160
           4       1:  160    1:   80  179:  320
           5     161:  320    1:   80  177:  320
           6       1:  160  241:  320  182:  320
           7       1:  160  200:  320   70:  160
           8       1:  160  124:  159   71:  160
           9       1:  160  160:  199   70:  160
          10     161:  320  160:  320  161:  180
          11     161:  320   81:  159  177:  320
          12       1:  160   81:  159  179:  320
          13     161:  320    1:  127   72:  160
          14     161:  320  160:  320    1:   69
          15     161:  320  198:  320   70:  160
          16       1:  160  160:  320  161:  181
          17     161:  320  160:  240  181:  320
          18       1:  160  160:  240  182:  320
          19       1:  160  160:  320    1:   69
          20     161:  320  128:  159   72:  160
          21     161:  320    1:  159    1:   71
          22     161:  320  160:  197   70:  160
          23     161:  320  241:  320  181:  320
          24     161:  320    1:  159  161:  176
New grid distribution:   3
           1     161:  320    1:  159    1:   72
           2     161:  320    1:  128   73:  160
           3       1:  160    1:  127   72:  160
           4     161:  320  160:  193   72:  160
           5     161:  320    1:   80  177:  320
           6       1:  160   81:  159  178:  320
           7       1:  160  128:  159   72:  160
           8       1:  160  160:  195   71:  160
           9       1:  160    1:   80  178:  320
          10       1:  160  160:  320  161:  179
          11     161:  320   81:  159  177:  320
          12     161:  320  129:  159   73:  160
          13     161:  320  160:  320    1:   71
          14       1:  160    1:  159    1:   71
          15       1:  160  196:  320   71:  160
          16     161:  320  160:  320  161:  177
          17     161:  320  160:  240  178:  320
          18       1:  160  160:  240  180:  320
          19       1:  160  160:  320    1:   70
          20       1:  160    1:  159  161:  177
          21     161:  320  194:  320   72:  160
          22     161:  320    1:  159  161:  176
          23     161:  320  241:  320  178:  320
          24       1:  160  241:  320  180:  320
Setting up quadratic distribution...
ExtMesh (bp) on 0 =   228 x   227 x   138 =     7142328
PhiOnMesh: Number of (b)points on node 0 =              1780800
PhiOnMesh: nlist on node 0 =                    0

        iscf     Eharris(eV)        E_KS(eV)     FreeEng(eV)     dDmax    Ef(eV) dHmax(eV)
   scf:    1    -1169.354098    -1169.262543    -1169.298380  0.153149 -4.791221  0.710675
   scf:    2    -1168.583652    -1169.083407    -1169.119244  0.045072 -4.457517  2.052151
   scf:    3    -1169.369375    -1169.310195    -1169.346032  0.034188 -4.671815  0.118825
   scf:    4    -1169.313643    -1169.312246    -1169.348083  0.004360 -4.627151  0.023362
   scf:    5    -1169.312433    -1169.312346    -1169.348183  0.000833 -4.612095  0.005531
   scf:    6    -1169.312351    -1169.312349    -1169.348187  0.000105 -4.611082  0.002400
   scf:    7    -1169.312350    -1169.312350    -1169.348187  0.000082 -4.610359  0.000700
   scf:    8    -1169.312350    -1169.312350    -1169.348187  0.000020 -4.610263  0.000423
   scf:    9    -1169.312350    -1169.312350    -1169.348187  0.000014 -4.610178  0.000085

SCF Convergence by DM+H criterion
max |DM_out - DM_in|         :     0.0000141650
max |H_out - H_in|      (eV) :     0.0000845018
SCF cycle converged after 9 iterations

Using DM_out to compute the final energy and forces
No. of atoms with KB's overlaping orbs in proc 0. Max # of overlaps:       3      39

siesta: E_KS(eV) =            -1169.3123

siesta: Atomic forces (eV/Ang):
----------------------------------------
   Tot   -0.000019    0.019681    0.000000
----------------------------------------
   Max    1.809189
   Res    0.756653    sqrt( Sum f_i^2 / 3N )
----------------------------------------
   Max    1.809189    constrained

Stress tensor Voigt[x,y,z,yz,xz,xy] (kbar):        0.01       -0.01        0.00       -0.00       -0.00       -0.00
(Free)E + p*V (eV/cell)    -1169.3989
Target enthalpy (eV/cell)    -1169.3482

                     ====================================
                        Begin CG opt. move =      5
                     ====================================

outcell: Unit cell vectors (Ang):
       50.000000    0.000000    0.000000
        0.000000   50.000000    0.000000
        0.000000    0.000000   50.000000

outcell: Cell vector modules (Ang)   :   50.000000   50.000000   50.000000
outcell: Cell angles (23,13,12) (deg):     90.0000     90.0000     90.0000
outcell: Cell volume (Ang**3)        : 125000.0000
<dSpData1D:S at geom step 5
  <sparsity:sparsity for geom step 5
    nrows_g=39 nrows=2 sparsity=.0513 nnzs=78, refcount: 7>
  <dData1D:(new from dSpData1D) n=78, refcount: 1>
refcount: 1>
new_DM -- step:     6
Re-using DM from previous geometries...
Number of DMs in history: 1
 DM extrapolation coefficients: 
1   1.00000
New DM after history re-use:
<dSpData2D:SpM extrapolated using coords
  <sparsity:sparsity for geom step 5
    nrows_g=39 nrows=2 sparsity=.0513 nnzs=78, refcount: 9>
  <dData2D:(temp array for extrapolation) n=78 m=1, refcount: 1>
refcount: 1>
No. of atoms with KB's overlaping orbs in proc 0. Max # of overlaps:       3      39
New grid distribution:   1
           1       1:  320    1:   80    1:   54
           2       1:  320    1:   80   55:  108
           3       1:  320    1:   80  109:  161
           4       1:  320    1:   80  162:  214
           5       1:  320    1:   80  215:  267
           6       1:  320    1:   80  268:  320
           7       1:  320   81:  160    1:   54
           8       1:  320   81:  160   55:  108
           9       1:  320   81:  160  109:  161
          10       1:  320   81:  160  162:  214
          11       1:  320   81:  160  215:  267
          12       1:  320   81:  160  268:  320
          13       1:  320  161:  240    1:   54
          14       1:  320  161:  240   55:  108
          15       1:  320  161:  240  109:  161
          16       1:  320  161:  240  162:  214
          17       1:  320  161:  240  215:  267
          18       1:  320  161:  240  268:  320
          19       1:  320  241:  320    1:   54
          20       1:  320  241:  320   55:  108
          21       1:  320  241:  320  109:  161
          22       1:  320  241:  320  162:  214
          23       1:  320  241:  320  215:  267
          24       1:  320  241:  320  268:  320

InitMesh: MESH =   640 x   640 x   640 =   262144000
InitMesh: (bp) =   320 x   320 x   320 =    32768000
InitMesh: Mesh cutoff (required, used) =   400.000   452.816 Ry
ExtMesh (bp) on 0 =   388 x   148 x   122 =     7005728
New grid distribution:   2
           1       1:  160  200:  320   70:  160
           2       1:  160  125:  159   71:  160
           3       1:  160    1:  124   71:  160
           4       1:  160    1:   80  179:  320
           5     161:  320    1:   80  177:  320
           6     161:  320  128:  159   72:  160
           7       1:  160    1:  159    1:   70
           8     161:  320  160:  197   70:  160
           9       1:  160  160:  199   70:  160
          10       1:  160    1:  159  161:  178
          11     161:  320   81:  159  177:  320
          12       1:  160   81:  159  179:  320
          13     161:  320    1:  127   72:  160
          14     161:  320  160:  320    1:   69
          15     161:  320  198:  320   70:  160
          16       1:  160  160:  320  161:  181
          17     161:  320  160:  240  181:  320
          18       1:  160  160:  240  182:  320
          19       1:  160  160:  320    1:   69
          20     161:  320    1:  159  161:  176
          21     161:  320    1:  159    1:   71
          22     161:  320  160:  320  161:  180
          23     161:  320  241:  320  181:  320
          24       1:  160  241:  320  182:  320
New grid distribution:   3
           1       1:  160   81:  159  178:  320
           2       1:  160  127:  159   72:  160
           3       1:  160    1:  126   72:  160
           4       1:  160    1:   80  178:  320
           5     161:  320    1:   80  177:  320
           6       1:  160  160:  320  161:  179
           7     161:  320    1:  159    1:   71
           8     161:  320  160:  193   72:  160
           9       1:  160  160:  195   71:  160
          10     161:  320  129:  159   72:  160
          11       1:  160  160:  240  180:  320
          12     161:  320   81:  159  177:  320
          13     161:  320  160:  320    1:   71
          14       1:  160    1:  159    1:   71
          15       1:  160  196:  320   71:  160
          16     161:  320  160:  320  161:  178
          17     161:  320  160:  240  179:  320
          18       1:  160    1:  159  161:  177
          19       1:  160  160:  320    1:   70
          20     161:  320  194:  320   72:  160
          21     161:  320    1:  128   72:  160
          22     161:  320    1:  159  161:  176
          23     161:  320  241:  320  179:  320
          24       1:  160  241:  320  180:  320
Setting up quadratic distribution...
ExtMesh (bp) on 0 =   228 x   189 x   159 =     6851628
PhiOnMesh: Number of (b)points on node 0 =              1761760
PhiOnMesh: nlist on node 0 =                    0

        iscf     Eharris(eV)        E_KS(eV)     FreeEng(eV)     dDmax    Ef(eV) dHmax(eV)
   scf:    1    -1169.320122    -1169.386796    -1169.422633  0.065549 -5.038578  0.302111
   scf:    2    -1169.256310    -1169.352120    -1169.387957  0.019115 -5.150227  0.884510
   scf:    3    -1169.406711    -1169.395518    -1169.431355  0.014523 -5.081603  0.047512
   scf:    4    -1169.396140    -1169.395889    -1169.431726  0.001832 -5.098008  0.009742
   scf:    5    -1169.395924    -1169.395908    -1169.431745  0.000358 -5.103299  0.001816
   scf:    6    -1169.395908    -1169.395908    -1169.431745  0.000032 -5.103787  0.000729
   scf:    7    -1169.395908    -1169.395908    -1169.431745  0.000014 -5.103903  0.000501
   scf:    8    -1169.395908    -1169.395908    -1169.431745  0.000016 -5.104007  0.000102
   scf:    9    -1169.395908    -1169.395908    -1169.431745  0.000004 -5.104045  0.000042

SCF Convergence by DM+H criterion
max |DM_out - DM_in|         :     0.0000037196
max |H_out - H_in|      (eV) :     0.0000417007
SCF cycle converged after 9 iterations

Using DM_out to compute the final energy and forces
No. of atoms with KB's overlaping orbs in proc 0. Max # of overlaps:       3      39

siesta: E_KS(eV) =            -1169.3959

siesta: Atomic forces (eV/Ang):
----------------------------------------
   Tot   -0.000011    0.004727    0.000000
----------------------------------------
   Max    0.341660
   Res    0.160909    sqrt( Sum f_i^2 / 3N )
----------------------------------------
   Max    0.341660    constrained

Stress tensor Voigt[x,y,z,yz,xz,xy] (kbar):       -0.00       -0.00        0.00       -0.00        0.00       -0.00
(Free)E + p*V (eV/cell)    -1169.2713
Target enthalpy (eV/cell)    -1169.4317

cgvc: Finished line minimization    2.  Mean atomic displacement =    0.0958

                     ====================================
                        Begin CG opt. move =      6
                     ====================================

outcell: Unit cell vectors (Ang):
       50.000000    0.000000    0.000000
        0.000000   50.000000    0.000000
        0.000000    0.000000   50.000000

outcell: Cell vector modules (Ang)   :   50.000000   50.000000   50.000000
outcell: Cell angles (23,13,12) (deg):     90.0000     90.0000     90.0000
outcell: Cell volume (Ang**3)        : 125000.0000
<dSpData1D:S at geom step 6
  <sparsity:sparsity for geom step 6
    nrows_g=39 nrows=2 sparsity=.0513 nnzs=78, refcount: 7>
  <dData1D:(new from dSpData1D) n=78, refcount: 1>
refcount: 1>
new_DM -- step:     7
Re-using DM from previous geometries...
Number of DMs in history: 1
 DM extrapolation coefficients: 
1   1.00000
New DM after history re-use:
<dSpData2D:SpM extrapolated using coords
  <sparsity:sparsity for geom step 6
    nrows_g=39 nrows=2 sparsity=.0513 nnzs=78, refcount: 9>
  <dData2D:(temp array for extrapolation) n=78 m=1, refcount: 1>
refcount: 1>
Note: For starting DM, Qtot, Tr[D*S] =         17.00000000         16.82411468
No. of atoms with KB's overlaping orbs in proc 0. Max # of overlaps:       3      39
New grid distribution:   1
           1       1:  320    1:   80    1:   54
           2       1:  320    1:   80   55:  108
           3       1:  320    1:   80  109:  161
           4       1:  320    1:   80  162:  214
           5       1:  320    1:   80  215:  267
           6       1:  320    1:   80  268:  320
           7       1:  320   81:  160    1:   54
           8       1:  320   81:  160   55:  108
           9       1:  320   81:  160  109:  161
          10       1:  320   81:  160  162:  214
          11       1:  320   81:  160  215:  267
          12       1:  320   81:  160  268:  320
          13       1:  320  161:  240    1:   54
          14       1:  320  161:  240   55:  108
          15       1:  320  161:  240  109:  161
          16       1:  320  161:  240  162:  214
          17       1:  320  161:  240  215:  267
          18       1:  320  161:  240  268:  320
          19       1:  320  241:  320    1:   54
          20       1:  320  241:  320   55:  108
          21       1:  320  241:  320  109:  161
          22       1:  320  241:  320  162:  214
          23       1:  320  241:  320  215:  267
          24       1:  320  241:  320  268:  320

InitMesh: MESH =   640 x   640 x   640 =   262144000
InitMesh: (bp) =   320 x   320 x   320 =    32768000
InitMesh: Mesh cutoff (required, used) =   400.000   452.816 Ry
ExtMesh (bp) on 0 =   388 x   148 x   122 =     7005728
New grid distribution:   2
           1     161:  320    1:  159    1:   71
           2     161:  320  199:  320   70:  160
           3       1:  160    1:  123   71:  160
           4       1:  160  124:  159   71:  160
           5     161:  320    1:   80  178:  320
           6     161:  320  127:  159   72:  160
           7       1:  160    1:  159    1:   70
           8       1:  160  160:  320    1:   68
           9     161:  320  160:  198   70:  160
          10       1:  160    1:  159  161:  179
          11     161:  320   81:  159  178:  320
          12       1:  160   81:  159  180:  320
          13       1:  160    1:   80  180:  320
          14     161:  320  160:  320    1:   69
          15       1:  160  160:  200   69:  160
          16       1:  160  160:  320  161:  182
          17     161:  320  160:  240  181:  320
          18       1:  160  160:  240  183:  320
          19     161:  320    1:  159  161:  177
          20       1:  160  201:  320   69:  160
          21     161:  320    1:  126   72:  160
          22     161:  320  160:  320  161:  180
          23     161:  320  241:  320  181:  320
          24       1:  160  241:  320  183:  320
New grid distribution:   3
           1     161:  320  160:  320  161:  177
           2     161:  320    1:  129   73:  160
           3       1:  160    1:  128   72:  160
           4       1:  160    1:   80  177:  320
           5     161:  320    1:   80  176:  320
           6       1:  160  241:  320  179:  320
           7       1:  160    1:  159    1:   71
           8       1:  160  129:  159   72:  160
           9       1:  160  160:  194   71:  160
          10       1:  160  160:  320  161:  178
          11     161:  320   81:  159  176:  320
          12       1:  160   81:  159  177:  320
          13     161:  320  160:  320    1:   71
          14     161:  320  130:  159   73:  160
          15       1:  160  195:  320   71:  160
          16       1:  160  160:  240  179:  320
          17     161:  320  160:  240  178:  320
          18       1:  160    1:  159  161:  176
          19       1:  160  160:  320    1:   70
          20     161:  320  193:  320   72:  160
          21     161:  320    1:  159    1:   72
          22     161:  320  160:  192   72:  160
          23     161:  320  241:  320  178:  320
          24     161:  320    1:  159  161:  175
Setting up quadratic distribution...
ExtMesh (bp) on 0 =   228 x   227 x   139 =     7194084
PhiOnMesh: Number of (b)points on node 0 =              1806240
PhiOnMesh: nlist on node 0 =                    0

        iscf     Eharris(eV)        E_KS(eV)     FreeEng(eV)     dDmax    Ef(eV) dHmax(eV)
   scf:    1    -1170.839336    -1168.952962    -1168.988799  0.110371 -5.558057  1.615932
   scf:    2    -1163.500164    -1167.371086    -1167.406924  0.159065 -5.588885  5.747654
   scf:    3    -1169.523220    -1169.125777    -1169.161614  0.120327 -5.627603  0.118760
   scf:    4    -1169.129647    -1169.128162    -1169.163999  0.009304 -5.703454  0.016895
   scf:    5    -1169.128187    -1169.128180    -1169.164017  0.000459 -5.701613  0.005479
   scf:    6    -1169.128187    -1169.128185    -1169.164022  0.000354 -5.702571  0.004912
   scf:    7    -1169.128185    -1169.128185    -1169.164022  0.000071 -5.702621  0.001663
   scf:    8    -1169.128185    -1169.128185    -1169.164022  0.000030 -5.702668  0.001064
   scf:    9    -1169.128185    -1169.128185    -1169.164023  0.000040 -5.702700  0.000071

SCF Convergence by DM+H criterion
max |DM_out - DM_in|         :     0.0000404569
max |H_out - H_in|      (eV) :     0.0000710575
SCF cycle converged after 9 iterations

Using DM_out to compute the final energy and forces
No. of atoms with KB's overlaping orbs in proc 0. Max # of overlaps:       3      39

siesta: E_KS(eV) =            -1169.1282

siesta: Atomic forces (eV/Ang):
----------------------------------------
   Tot    0.000246    0.021844    0.000000
----------------------------------------
   Max    3.603742
   Res    2.029947    sqrt( Sum f_i^2 / 3N )
----------------------------------------
   Max    3.603742    constrained

Stress tensor Voigt[x,y,z,yz,xz,xy] (kbar):        0.11        0.02        0.00       -0.00       -0.00        0.00
(Free)E + p*V (eV/cell)    -1172.4356
Target enthalpy (eV/cell)    -1169.1640

                     ====================================
                        Begin CG opt. move =      7
                     ====================================

outcell: Unit cell vectors (Ang):
       50.000000    0.000000    0.000000
        0.000000   50.000000    0.000000
        0.000000    0.000000   50.000000

outcell: Cell vector modules (Ang)   :   50.000000   50.000000   50.000000
outcell: Cell angles (23,13,12) (deg):     90.0000     90.0000     90.0000
outcell: Cell volume (Ang**3)        : 125000.0000
<dSpData1D:S at geom step 7
  <sparsity:sparsity for geom step 7
    nrows_g=39 nrows=2 sparsity=.0513 nnzs=78, refcount: 7>
  <dData1D:(new from dSpData1D) n=78, refcount: 1>
refcount: 1>
new_DM -- step:     8
Re-using DM from previous geometries...
Number of DMs in history: 1
 DM extrapolation coefficients: 
1   1.00000
New DM after history re-use:
<dSpData2D:SpM extrapolated using coords
  <sparsity:sparsity for geom step 7
    nrows_g=39 nrows=2 sparsity=.0513 nnzs=78, refcount: 9>
  <dData2D:(temp array for extrapolation) n=78 m=1, refcount: 1>
refcount: 1>
Note: For starting DM, Qtot, Tr[D*S] =         17.00000000         17.15532786
No. of atoms with KB's overlaping orbs in proc 0. Max # of overlaps:       3      39
New grid distribution:   1
           1       1:  320    1:   80    1:   54
           2       1:  320    1:   80   55:  108
           3       1:  320    1:   80  109:  161
           4       1:  320    1:   80  162:  214
           5       1:  320    1:   80  215:  267
           6       1:  320    1:   80  268:  320
           7       1:  320   81:  160    1:   54
           8       1:  320   81:  160   55:  108
           9       1:  320   81:  160  109:  161
          10       1:  320   81:  160  162:  214
          11       1:  320   81:  160  215:  267
          12       1:  320   81:  160  268:  320
          13       1:  320  161:  240    1:   54
          14       1:  320  161:  240   55:  108
          15       1:  320  161:  240  109:  161
          16       1:  320  161:  240  162:  214
          17       1:  320  161:  240  215:  267
          18       1:  320  161:  240  268:  320
          19       1:  320  241:  320    1:   54
          20       1:  320  241:  320   55:  108
          21       1:  320  241:  320  109:  161
          22       1:  320  241:  320  162:  214
          23       1:  320  241:  320  215:  267
          24       1:  320  241:  320  268:  320

InitMesh: MESH =   640 x   640 x   640 =   262144000
InitMesh: (bp) =   320 x   320 x   320 =    32768000
InitMesh: Mesh cutoff (required, used) =   400.000   452.816 Ry
ExtMesh (bp) on 0 =   388 x   148 x   122 =     7005728
New grid distribution:   2
           1       1:  160  200:  320   70:  160
           2       1:  160  125:  159   71:  160
           3       1:  160    1:  124   71:  160
           4       1:  160    1:   80  179:  320
           5     161:  320    1:   80  177:  320
           6     161:  320  128:  159   72:  160
           7       1:  160    1:  159    1:   70
           8     161:  320  160:  197   70:  160
           9       1:  160  160:  199   70:  160
          10       1:  160    1:  159  161:  178
          11     161:  320   81:  159  177:  320
          12       1:  160   81:  159  179:  320
          13     161:  320    1:  127   72:  160
          14     161:  320  160:  320    1:   69
          15     161:  320  198:  320   70:  160
          16       1:  160  160:  320  161:  181
          17     161:  320  160:  240  181:  320
          18       1:  160  160:  240  182:  320
          19       1:  160  160:  320    1:   69
          20     161:  320    1:  159  161:  176
          21     161:  320    1:  159    1:   71
          22     161:  320  160:  320  161:  180
          23     161:  320  241:  320  181:  320
          24       1:  160  241:  320  182:  320
New grid distribution:   3
           1       1:  160  127:  159   72:  160
           2       1:  160    1:  126   72:  160
           3     161:  320    1:  128   72:  160
           4       1:  160    1:   80  178:  320
           5     161:  320    1:   80  177:  320
           6       1:  160   81:  159  178:  320
           7       1:  160  160:  320  161:  179
           8     161:  320  160:  193   72:  160
           9       1:  160  160:  195   71:  160
          10     161:  320  129:  159   72:  160
          11       1:  160  160:  240  180:  320
          12     161:  320   81:  159  177:  320
          13     161:  320  160:  320    1:   71
          14     161:  320    1:  159    1:   71
          15       1:  160  196:  320   71:  160
          16     161:  320  160:  320  161:  177
          17     161:  320  160:  240  178:  320
          18       1:  160    1:  159    1:   71
          19       1:  160  160:  320    1:   70
          20       1:  160    1:  159  161:  177
          21     161:  320  194:  320   72:  160
          22     161:  320    1:  159  161:  176
          23     161:  320  241:  320  178:  320
          24       1:  160  241:  320  180:  320
Setting up quadratic distribution...
ExtMesh (bp) on 0 =   228 x   189 x   159 =     6851628
PhiOnMesh: Number of (b)points on node 0 =              1761760
PhiOnMesh: nlist on node 0 =                    0

        iscf     Eharris(eV)        E_KS(eV)     FreeEng(eV)     dDmax    Ef(eV) dHmax(eV)
   scf:    1    -1166.945642    -1169.279684    -1169.315521  0.098938 -5.267570  1.249103
   scf:    2    -1166.753441    -1168.577263    -1168.613100  0.111171 -5.159564  3.932985
   scf:    3    -1169.612671    -1169.394950    -1169.430787  0.079366 -5.205801  0.093927
   scf:    4    -1169.397639    -1169.396543    -1169.432380  0.008120 -5.146261  0.022479
   scf:    5    -1169.396600    -1169.396580    -1169.432417  0.000655 -5.142725  0.006780
   scf:    6    -1169.396586    -1169.396584    -1169.432421  0.000263 -5.141977  0.005553
   scf:    7    -1169.396587    -1169.396586    -1169.432423  0.000182 -5.142397  0.001171
   scf:    8    -1169.396586    -1169.396586    -1169.432423  0.000021 -5.142368  0.000696
   scf:    9    -1169.396586    -1169.396586    -1169.432423  0.000034 -5.142350  0.000058

SCF Convergence by DM+H criterion
max |DM_out - DM_in|         :     0.0000338229
max |H_out - H_in|      (eV) :     0.0000583313
SCF cycle converged after 9 iterations

Using DM_out to compute the final energy and forces
No. of atoms with KB's overlaping orbs in proc 0. Max # of overlaps:       3      39

siesta: E_KS(eV) =            -1169.3966

siesta: Atomic forces (eV/Ang):
----------------------------------------
   Tot    0.000005    0.006589    0.000000
----------------------------------------
   Max    0.120644
   Res    0.070362    sqrt( Sum f_i^2 / 3N )
----------------------------------------
   Max    0.120644    constrained

Stress tensor Voigt[x,y,z,yz,xz,xy] (kbar):        0.00       -0.00        0.00       -0.00       -0.00        0.00
(Free)E + p*V (eV/cell)    -1169.5111
Target enthalpy (eV/cell)    -1169.4324

cgvc: Finished line minimization    3.  Mean atomic displacement =    0.0057

                     ====================================
                        Begin CG opt. move =      8
                     ====================================

outcell: Unit cell vectors (Ang):
       50.000000    0.000000    0.000000
        0.000000   50.000000    0.000000
        0.000000    0.000000   50.000000

outcell: Cell vector modules (Ang)   :   50.000000   50.000000   50.000000
outcell: Cell angles (23,13,12) (deg):     90.0000     90.0000     90.0000
outcell: Cell volume (Ang**3)        : 125000.0000
<dSpData1D:S at geom step 8
  <sparsity:sparsity for geom step 8
    nrows_g=39 nrows=2 sparsity=.0513 nnzs=78, refcount: 7>
  <dData1D:(new from dSpData1D) n=78, refcount: 1>
refcount: 1>
new_DM -- step:     9
Re-using DM from previous geometries...
Number of DMs in history: 1
 DM extrapolation coefficients: 
1   1.00000
New DM after history re-use:
<dSpData2D:SpM extrapolated using coords
  <sparsity:sparsity for geom step 8
    nrows_g=39 nrows=2 sparsity=.0513 nnzs=78, refcount: 9>
  <dData2D:(temp array for extrapolation) n=78 m=1, refcount: 1>
refcount: 1>
No. of atoms with KB's overlaping orbs in proc 0. Max # of overlaps:       3      39
New grid distribution:   1
           1       1:  320    1:   80    1:   54
           2       1:  320    1:   80   55:  108
           3       1:  320    1:   80  109:  161
           4       1:  320    1:   80  162:  214
           5       1:  320    1:   80  215:  267
           6       1:  320    1:   80  268:  320
           7       1:  320   81:  160    1:   54
           8       1:  320   81:  160   55:  108
           9       1:  320   81:  160  109:  161
          10       1:  320   81:  160  162:  214
          11       1:  320   81:  160  215:  267
          12       1:  320   81:  160  268:  320
          13       1:  320  161:  240    1:   54
          14       1:  320  161:  240   55:  108
          15       1:  320  161:  240  109:  161
          16       1:  320  161:  240  162:  214
          17       1:  320  161:  240  215:  267
          18       1:  320  161:  240  268:  320
          19       1:  320  241:  320    1:   54
          20       1:  320  241:  320   55:  108
          21       1:  320  241:  320  109:  161
          22       1:  320  241:  320  162:  214
          23       1:  320  241:  320  215:  267
          24       1:  320  241:  320  268:  320

InitMesh: MESH =   640 x   640 x   640 =   262144000
InitMesh: (bp) =   320 x   320 x   320 =    32768000
InitMesh: Mesh cutoff (required, used) =   400.000   452.816 Ry
ExtMesh (bp) on 0 =   388 x   148 x   122 =     7005728
New grid distribution:   2
           1       1:  160  200:  320   70:  160
           2       1:  160  125:  159   71:  160
           3       1:  160    1:  124   71:  160
           4       1:  160    1:   80  179:  320
           5     161:  320    1:   80  177:  320
           6     161:  320  128:  159   72:  160
           7       1:  160    1:  159    1:   70
           8     161:  320  160:  197   70:  160
           9       1:  160  160:  199   70:  160
          10       1:  160    1:  159  161:  178
          11     161:  320   81:  159  177:  320
          12       1:  160   81:  159  179:  320
          13     161:  320    1:  127   72:  160
          14     161:  320  160:  320    1:   69
          15     161:  320  198:  320   70:  160
          16       1:  160  160:  320  161:  181
          17     161:  320  160:  240  181:  320
          18       1:  160  160:  240  182:  320
          19       1:  160  160:  320    1:   69
          20     161:  320    1:  159  161:  176
          21     161:  320    1:  159    1:   71
          22     161:  320  160:  320  161:  180
          23     161:  320  241:  320  181:  320
          24       1:  160  241:  320  182:  320
New grid distribution:   3
           1       1:  160  127:  159   72:  160
           2       1:  160    1:  126   72:  160
           3     161:  320    1:  128   72:  160
[...]
           8     161:  320  160:  197   70:  160
           9       1:  160  160:  199   70:  160
          10       1:  160    1:  159  161:  178
          11     161:  320   81:  159  177:  320
          12       1:  160   81:  159  179:  320
          13     161:  320    1:  127   72:  160
          14     161:  320  160:  320    1:   69
          15     161:  320  198:  320   70:  160
          16       1:  160  160:  320  161:  181
          17     161:  320  160:  240  181:  320
          18       1:  160  160:  240  182:  320
          19       1:  160  160:  320    1:   69
          20     161:  320    1:  159  161:  176
          21     161:  320    1:  159    1:   71
          22     161:  320  160:  320  161:  180
          23     161:  320  241:  320  181:  320
          24       1:  160  241:  320  182:  320
New grid distribution:   3
           1     161:  320    1:  159    1:   72
           2       1:  160   81:  159  178:  320
           3     161:  320    1:  128   73:  160
           4     161:  320  160:  193   72:  160
           5     161:  320    1:   80  177:  320
           6       1:  160  127:  159   72:  160
           7       1:  160    1:  159    1:   71
           8       1:  160    1:  126   72:  160
           9       1:  160    1:   80  178:  320
          10       1:  160  160:  195   71:  160
          11     161:  320   81:  159  177:  320
          12     161:  320  129:  159   73:  160
          13     161:  320  160:  320    1:   71
          14       1:  160  241:  320  180:  320
          15       1:  160  196:  320   71:  160
          16     161:  320  160:  320  161:  177
          17     161:  320  160:  240  178:  320
          18       1:  160  160:  240  180:  320
          19       1:  160  160:  320    1:   70
          20       1:  160    1:  159  161:  177
          21     161:  320  194:  320   72:  160
          22       1:  160  160:  320  161:  179
          23     161:  320  241:  320  178:  320
          24     161:  320    1:  159  161:  176
Setting up quadratic distribution...
ExtMesh (bp) on 0 =   228 x   189 x   159 =     6851628
PhiOnMesh: Number of (b)points on node 0 =              1761760
PhiOnMesh: nlist on node 0 =                    0

        iscf     Eharris(eV)        E_KS(eV)     FreeEng(eV)     dDmax    Ef(eV) dHmax(eV)
   scf:    1    -1169.400282    -1169.397289    -1169.433126  0.006096 -5.198859  0.024237
   scf:    2    -1169.396483    -1169.397080    -1169.432917  0.001427 -5.188056  0.069174
   scf:    3    -1169.397422    -1169.397353    -1169.433190  0.001107 -5.194603  0.004215
   scf:    4    -1169.397358    -1169.397356    -1169.433193  0.000164 -5.192929  0.001354
   scf:    5    -1169.397356    -1169.397356    -1169.433193  0.000015 -5.192725  0.000950
   scf:    6    -1169.397356    -1169.397356    -1169.433193  0.000025 -5.192300  0.000074

SCF Convergence by DM+H criterion
max |DM_out - DM_in|         :     0.0000248889
max |H_out - H_in|      (eV) :     0.0000742276
SCF cycle converged after 6 iterations

Using DM_out to compute the final energy and forces
No. of atoms with KB's overlaping orbs in proc 0. Max # of overlaps:       3      39

siesta: E_KS(eV) =            -1169.3974

siesta: Atomic forces (eV/Ang):
----------------------------------------
   Tot   -0.000015    0.001491    0.000000
----------------------------------------
   Max    0.060133
   Res    0.034447    sqrt( Sum f_i^2 / 3N )
----------------------------------------
   Max    0.060133    constrained

Stress tensor Voigt[x,y,z,yz,xz,xy] (kbar):        0.00        0.00        0.00       -0.00        0.00       -0.00
(Free)E + p*V (eV/cell)    -1169.5131
Target enthalpy (eV/cell)    -1169.4332

cgvc: Finished line minimization    4.  Mean atomic displacement =    0.0078

                     ====================================
                        Begin CG opt. move =     11
                     ====================================

outcell: Unit cell vectors (Ang):
       50.000000    0.000000    0.000000
        0.000000   50.000000    0.000000
        0.000000    0.000000   50.000000

outcell: Cell vector modules (Ang)   :   50.000000   50.000000   50.000000
outcell: Cell angles (23,13,12) (deg):     90.0000     90.0000     90.0000
outcell: Cell volume (Ang**3)        : 125000.0000
<dSpData1D:S at geom step 11
  <sparsity:sparsity for geom step 11
    nrows_g=39 nrows=2 sparsity=.0513 nnzs=78, refcount: 7>
  <dData1D:(new from dSpData1D) n=78, refcount: 1>
refcount: 1>
new_DM -- step:    12
Re-using DM from previous geometries...
Number of DMs in history: 1
 DM extrapolation coefficients: 
1   1.00000
New DM after history re-use:
<dSpData2D:SpM extrapolated using coords
  <sparsity:sparsity for geom step 11
    nrows_g=39 nrows=2 sparsity=.0513 nnzs=78, refcount: 9>
  <dData2D:(temp array for extrapolation) n=78 m=1, refcount: 1>
refcount: 1>
No. of atoms with KB's overlaping orbs in proc 0. Max # of overlaps:       3      39
New grid distribution:   1
           1       1:  320    1:   80    1:   54
           2       1:  320    1:   80   55:  108
           3       1:  320    1:   80  109:  161
           4       1:  320    1:   80  162:  214
           5       1:  320    1:   80  215:  267
           6       1:  320    1:   80  268:  320
           7       1:  320   81:  160    1:   54
           8       1:  320   81:  160   55:  108
           9       1:  320   81:  160  109:  161
          10       1:  320   81:  160  162:  214
          11       1:  320   81:  160  215:  267
          12       1:  320   81:  160  268:  320
          13       1:  320  161:  240    1:   54
          14       1:  320  161:  240   55:  108
          15       1:  320  161:  240  109:  161
          16       1:  320  161:  240  162:  214
          17       1:  320  161:  240  215:  267
          18       1:  320  161:  240  268:  320
          19       1:  320  241:  320    1:   54
          20       1:  320  241:  320   55:  108
          21       1:  320  241:  320  109:  161
          22       1:  320  241:  320  162:  214
          23       1:  320  241:  320  215:  267
          24       1:  320  241:  320  268:  320

InitMesh: MESH =   640 x   640 x   640 =   262144000
InitMesh: (bp) =   320 x   320 x   320 =    32768000
InitMesh: Mesh cutoff (required, used) =   400.000   452.816 Ry
ExtMesh (bp) on 0 =   388 x   148 x   122 =     7005728
New grid distribution:   2
           1       1:  160  200:  320   70:  160
           2       1:  160  125:  159   71:  160
           3       1:  160    1:  124   71:  160
           4       1:  160    1:   80  179:  320
           5     161:  320    1:   80  177:  320
           6     161:  320  128:  159   72:  160
           7       1:  160    1:  159    1:   70
           8     161:  320  160:  197   70:  160
           9       1:  160  160:  199   70:  160
          10       1:  160    1:  159  161:  178
          11     161:  320   81:  159  177:  320
          12       1:  160   81:  159  179:  320
          13     161:  320    1:  127   72:  160
          14     161:  320  160:  320    1:   69
          15     161:  320  198:  320   70:  160
          16       1:  160  160:  320  161:  181
          17     161:  320  160:  240  181:  320
          18       1:  160  160:  240  182:  320
          19       1:  160  160:  320    1:   69
          20     161:  320    1:  159  161:  176
          21     161:  320    1:  159    1:   71
          22     161:  320  160:  320  161:  180
          23     161:  320  241:  320  181:  320
          24       1:  160  241:  320  182:  320
New grid distribution:   3
           1       1:  160   81:  159  178:  320
           2       1:  160  127:  159   72:  160
           3       1:  160    1:  126   72:  160
           4       1:  160    1:   80  178:  320
           5     161:  320    1:   80  177:  320
           6       1:  160  160:  320  161:  179
           7     161:  320    1:  159    1:   71
           8     161:  320  160:  193   72:  160
           9       1:  160  160:  195   71:  160
          10     161:  320  129:  159   72:  160
          11       1:  160  160:  240  180:  320
          12     161:  320   81:  159  177:  320
          13     161:  320  160:  320    1:   71
          14       1:  160    1:  159    1:   71
          15       1:  160  196:  320   71:  160
          16     161:  320  160:  320  161:  178
          17     161:  320  160:  240  179:  320
          18       1:  160    1:  159  161:  177
          19       1:  160  160:  320    1:   70
          20     161:  320  194:  320   72:  160
          21     161:  320    1:  128   72:  160
          22     161:  320    1:  159  161:  176
          23     161:  320  241:  320  179:  320
          24       1:  160  241:  320  180:  320
Setting up quadratic distribution...
ExtMesh (bp) on 0 =   228 x   189 x   159 =     6851628
PhiOnMesh: Number of (b)points on node 0 =              1761760
PhiOnMesh: nlist on node 0 =                    0

        iscf     Eharris(eV)        E_KS(eV)     FreeEng(eV)     dDmax    Ef(eV) dHmax(eV)
   scf:    1    -1169.194871    -1169.394758    -1169.430595  0.008663 -5.151994  0.109778
   scf:    2    -1169.374911    -1169.389229    -1169.425066  0.009907 -5.144994  0.344099
   scf:    3    -1169.397346    -1169.395659    -1169.431496  0.007102 -5.146385  0.009296
   scf:    4    -1169.395678    -1169.395670    -1169.431507  0.000721 -5.141017  0.002972
   scf:    5    -1169.395671    -1169.395671    -1169.431508  0.000076 -5.140709  0.000529
   scf:    6    -1169.395671    -1169.395671    -1169.431508  0.000043 -5.140709  0.000228
   scf:    7    -1169.395671    -1169.395671    -1169.431508  0.000005 -5.140733  0.000084

SCF Convergence by DM+H criterion
max |DM_out - DM_in|         :     0.0000045361
max |H_out - H_in|      (eV) :     0.0000837912
SCF cycle converged after 7 iterations

Using DM_out to compute the final energy and forces
No. of atoms with KB's overlaping orbs in proc 0. Max # of overlaps:       3      39

siesta: E_KS(eV) =            -1169.3957

siesta: Atomic forces (eV/Ang):
----------------------------------------
   Tot    0.000118    0.009128    0.000000
----------------------------------------
   Max    0.347016
   Res    0.196977    sqrt( Sum f_i^2 / 3N )
----------------------------------------
   Max    0.347016    constrained

Stress tensor Voigt[x,y,z,yz,xz,xy] (kbar):       -0.01       -0.00        0.00       -0.00       -0.00        0.00
(Free)E + p*V (eV/cell)    -1169.1384
Target enthalpy (eV/cell)    -1169.4315

                     ====================================
                        Begin CG opt. move =     12
                     ====================================

outcell: Unit cell vectors (Ang):
       50.000000    0.000000    0.000000
        0.000000   50.000000    0.000000
        0.000000    0.000000   50.000000

outcell: Cell vector modules (Ang)   :   50.000000   50.000000   50.000000
outcell: Cell angles (23,13,12) (deg):     90.0000     90.0000     90.0000
outcell: Cell volume (Ang**3)        : 125000.0000
<dSpData1D:S at geom step 12
  <sparsity:sparsity for geom step 12
    nrows_g=39 nrows=2 sparsity=.0513 nnzs=78, refcount: 7>
  <dData1D:(new from dSpData1D) n=78, refcount: 1>
refcount: 1>
new_DM -- step:    13
Re-using DM from previous geometries...
Number of DMs in history: 1
 DM extrapolation coefficients: 
1   1.00000
New DM after history re-use:
<dSpData2D:SpM extrapolated using coords
  <sparsity:sparsity for geom step 12
    nrows_g=39 nrows=2 sparsity=.0513 nnzs=78, refcount: 9>
  <dData2D:(temp array for extrapolation) n=78 m=1, refcount: 1>
refcount: 1>
No. of atoms with KB's overlaping orbs in proc 0. Max # of overlaps:       3      39
New grid distribution:   1
           1       1:  320    1:   80    1:   54
           2       1:  320    1:   80   55:  108
           3       1:  320    1:   80  109:  161
           4       1:  320    1:   80  162:  214
           5       1:  320    1:   80  215:  267
           6       1:  320    1:   80  268:  320
           7       1:  320   81:  160    1:   54
           8       1:  320   81:  160   55:  108
           9       1:  320   81:  160  109:  161
          10       1:  320   81:  160  162:  214
          11       1:  320   81:  160  215:  267
          12       1:  320   81:  160  268:  320
          13       1:  320  161:  240    1:   54
          14       1:  320  161:  240   55:  108
          15       1:  320  161:  240  109:  161
          16       1:  320  161:  240  162:  214
          17       1:  320  161:  240  215:  267
          18       1:  320  161:  240  268:  320
          19       1:  320  241:  320    1:   54
          20       1:  320  241:  320   55:  108
          21       1:  320  241:  320  109:  161
          22       1:  320  241:  320  162:  214
          23       1:  320  241:  320  215:  267
          24       1:  320  241:  320  268:  320

InitMesh: MESH =   640 x   640 x   640 =   262144000
InitMesh: (bp) =   320 x   320 x   320 =    32768000
InitMesh: Mesh cutoff (required, used) =   400.000   452.816 Ry
ExtMesh (bp) on 0 =   388 x   148 x   122 =     7005728
New grid distribution:   2
           1       1:  160  200:  320   70:  160
           2       1:  160  125:  159   71:  160
           3       1:  160    1:  124   71:  160
           4       1:  160    1:   80  179:  320
           5     161:  320    1:   80  177:  320
           6     161:  320  128:  159   72:  160
           7       1:  160    1:  159    1:   70
           8     161:  320  160:  197   70:  160
           9       1:  160  160:  199   70:  160
          10       1:  160    1:  159  161:  178
          11     161:  320   81:  159  177:  320
          12       1:  160   81:  159  179:  320
          13     161:  320    1:  127   72:  160
          14     161:  320  160:  320    1:   69
          15     161:  320  198:  320   70:  160
          16       1:  160  160:  320  161:  181
          17     161:  320  160:  240  181:  320
          18       1:  160  160:  240  182:  320
          19       1:  160  160:  320    1:   69
          20     161:  320    1:  159  161:  176
          21     161:  320    1:  159    1:   71
          22     161:  320  160:  320  161:  180
          23     161:  320  241:  320  181:  320
          24       1:  160  241:  320  182:  320
New grid distribution:   3
           1     161:  320    1:  159    1:   72
           2       1:  160   81:  159  178:  320
           3     161:  320    1:  128   73:  160
           4     161:  320  160:  193   72:  160
           5     161:  320    1:   80  177:  320
           6       1:  160  127:  159   72:  160
           7       1:  160    1:  159    1:   71
           8       1:  160    1:  126   72:  160
           9       1:  160    1:   80  178:  320
          10       1:  160  160:  195   71:  160
          11     161:  320   81:  159  177:  320
          12     161:  320  129:  159   73:  160
          13     161:  320  160:  320    1:   71
          14       1:  160  241:  320  180:  320
          15       1:  160  196:  320   71:  160
          16     161:  320  160:  320  161:  177
          17     161:  320  160:  240  178:  320
          18       1:  160  160:  240  180:  320
          19       1:  160  160:  320    1:   70
          20       1:  160    1:  159  161:  177
          21     161:  320  194:  320   72:  160
          22       1:  160  160:  320  161:  179
          23     161:  320  241:  320  178:  320
          24     161:  320    1:  159  161:  176
Setting up quadratic distribution...
ExtMesh (bp) on 0 =   228 x   189 x   159 =     6851628
PhiOnMesh: Number of (b)points on node 0 =              1761760
PhiOnMesh: nlist on node 0 =                    0

        iscf     Eharris(eV)        E_KS(eV)     FreeEng(eV)     dDmax    Ef(eV) dHmax(eV)
   scf:    1    -1169.564148    -1169.396732    -1169.432569  0.007400 -5.175006  0.094855
   scf:    2    -1169.381640    -1169.392512    -1169.428349  0.008623 -5.180589  0.300082
   scf:    3    -1169.398665    -1169.397398    -1169.433235  0.006211 -5.179811  0.007995
   scf:    4    -1169.397412    -1169.397407    -1169.433244  0.000621 -5.184489  0.002300
   scf:    5    -1169.397407    -1169.397407    -1169.433244  0.000058 -5.184706  0.000501
   scf:    6    -1169.397407    -1169.397407    -1169.433244  0.000030 -5.184651  0.000147
   scf:    7    -1169.397407    -1169.397407    -1169.433244  0.000003 -5.184667  0.000072

SCF Convergence by DM+H criterion
max |DM_out - DM_in|         :     0.0000032038
max |H_out - H_in|      (eV) :     0.0000724298
SCF cycle converged after 7 iterations

Using DM_out to compute the final energy and forces
No. of atoms with KB's overlaping orbs in proc 0. Max # of overlaps:       3      39

siesta: E_KS(eV) =            -1169.3974

siesta: Atomic forces (eV/Ang):
----------------------------------------
   Tot    0.000003    0.009521    0.000000
----------------------------------------
   Max    0.005610
   Res    0.002297    sqrt( Sum f_i^2 / 3N )
----------------------------------------
   Max    0.005610    constrained

Stress tensor Voigt[x,y,z,yz,xz,xy] (kbar):       -0.00        0.00        0.00       -0.00       -0.00        0.00
(Free)E + p*V (eV/cell)    -1169.4423
Target enthalpy (eV/cell)    -1169.4332

outcoor: Relaxed atomic coordinates (Ang):                  
   25.00000021   25.06890215   25.00000000   1       1  N
   26.12004684   24.57720464   25.00000000   2       2  O
   23.87995284   24.57720455   25.00000000   2       3  O

siesta: Program's energy decomposition (eV):
siesta: Ebs     =      -263.558694
siesta: Eions   =      1625.654634
siesta: Ena     =       187.039079
siesta: Ekin    =       774.792467
siesta: Enl     =      -212.674937
siesta: Eso     =         0.000000
siesta: Edftu   =         0.000000
siesta: DEna    =         2.412512
siesta: DUscf   =         0.707813
siesta: DUext   =         0.000000
siesta: Exc     =      -296.019708
siesta: eta*DQ  =         0.000000
siesta: Emadel  =         0.000000
siesta: Emeta   =         0.000000
siesta: Emolmec =         0.000000
siesta: Ekinion =         0.000000
siesta: Eharris =     -1169.397407
siesta: Etot    =     -1169.397407
siesta: FreeEng =     -1169.433244

siesta: Final energy (eV):
siesta:  Band Struct. =    -263.558694
siesta:       Kinetic =     774.792467
siesta:       Hartree =    1766.436204
siesta:       Edftu   =       0.000000
siesta:       Eso     =       0.000000
siesta:    Ext. field =       0.000000
siesta:   Exch.-corr. =    -296.019708
siesta:  Ion-electron =   -4234.368365
siesta:       Ion-ion =     819.761995
siesta:       Ekinion =       0.000000
siesta:         Total =   -1169.397407
siesta:         Fermi =      -5.184667

siesta: Stress tensor (static) (eV/Ang**3):
siesta:    -0.000000    0.000000   -0.000000
siesta:     0.000000    0.000000   -0.000000
siesta:    -0.000000   -0.000000    0.000000

siesta: Cell volume =     125000.000000 Ang**3

siesta: Pressure (static):
siesta:                Solid            Molecule  Units
siesta:          -0.00000000         -0.00000000  Ry/Bohr**3
siesta:          -0.00000007         -0.00000009  eV/Ang**3
siesta:          -0.00011671         -0.00014140  kBar
(Free)E+ p_basis*V_orbitals  =       -1168.790288
(Free)Eharris+ p_basis*V_orbitals  =       -1168.790288

siesta: Electric dipole (a.u.)  =    0.000001    0.063450   -0.000000
siesta: Electric dipole (Debye) =    0.000003    0.161273   -0.000000

cite: Please see "no2.bib" for an exhaustive BiBTeX file.
cite: Please clearly indicate Siesta version in published work: 4.1.5
cite: This calculation has made use of the following articles
cite: which are encouraged to be cited in a published work.
        Primary SIESTA paper
          DOI: www.doi.org/10.1088/0953-8984/14/11/302
 
>> End of run:   5-JUL-2021  19:51:44
Job completed
Job completed
