<?xml version="1.0" encoding="UTF-8" ?>
<psml version="1.1" energy_unit="hartree" length_unit="bohr"
 uuid="ee493660-a869-11eb-60ae-1b4afeffc55c"
 xmlns="http://esl.cecam.org/PSML/ns/1.1">
<provenance creator="ATM4.2.7" date="28-APR-21">
<annotation action="semilocal-pseudopotential-generation" />
<input-file name="INP">
<![CDATA[   pg      Oxygen
        tm2  2.0
 n=O  c=ca
       0.0       0.0       0.0       0.0       0.0       0.0
    1    4
    2    0     2.00      0.00
    2    1     4.00      0.00
    3    2     0.00      0.00
    4    3     0.00      0.00
   1.15     1.15     1.15     1.15
]]>
</input-file>
</provenance>
<pseudo-atom-spec atomic-label="O" atomic-number="8" z-pseudo="6"
 flavor="Troullier-Martins" relativity="no" spin-dft="no" core-corrections="no">
<annotation pseudo-energy="-15.7300154462" />
<exchange-correlation>
<annotation atom-xc-code="ca" siesta-xc-type="LDA" siesta-xc-authors="CA" />
<libxc-info number-of-functionals="2">
<functional name="XC_LDA_X" type="XC_EXCHANGE" id="1" />
<functional name="XC_LDA_C_PZ" type="XC_CORRELATION" id="9" />
</libxc-info>
</exchange-correlation>
<valence-configuration total-valence-charge="6">
<shell n="2" l="s" occupation="2" />
<shell n="2" l="p" occupation="4" />
</valence-configuration>
</pseudo-atom-spec>
<grid npts="376">
<annotation type="sampled-log-atom"
 recipe="r(i:1..N) = a*(exp(b*(i-1))-1); resampled"
 recipe-cont="a: scale; b: step" scale="0.309844022083E-03"
 step="0.125000000000E-01" delta="0.500000000000E-02" rmax="20" />
<grid-data>
  0.000000000000E+00  5.046671836297E-03  1.007984357808E-02  1.518974854062E-02
  2.035251700562E-02  2.556610006306E-02  3.090250246574E-02  3.595372892337E-02
  4.129904144018E-02  4.683920017331E-02  5.245334327694E-02  5.800249612577E-02
  6.333470855386E-02  6.915451056086E-02  7.456468283430E-02  8.039622178140E-02
  8.560131582679E-02  9.114210959625E-02  9.704025386184E-02  1.033187957505E-01
  1.086319497276E-01  1.142175149343E-01  1.200894581930E-01  1.262624624205E-01
  1.327519633426E-01  1.378365207374E-01  1.431153692244E-01  1.485959330545E-01
  1.542859201736E-01  1.601933330639E-01  1.663264799983E-01  1.726939867255E-01
  1.793048086012E-01  1.861682431831E-01  1.932939433072E-01  2.006919306636E-01
  2.057803148154E-01  2.109975120253E-01  2.163467832113E-01  2.218314718422E-01
  2.274550060267E-01  2.332209006569E-01  2.391327596047E-01  2.451942779741E-01
  2.514092444117E-01  2.577815434737E-01  2.643151580545E-01  2.710141718758E-01
  2.778827720395E-01  2.849252516441E-01  2.921460124687E-01  2.995495677238E-01
  3.071405448725E-01  3.149236885227E-01  3.229038633924E-01  3.310860573507E-01
  3.394753845353E-01  3.480770885486E-01  3.568965457358E-01  3.659392685446E-01
  3.752109089712E-01  3.847172620927E-01  3.944642696891E-01  4.044580239577E-01
  4.095493769703E-01  4.147047713200E-01  4.199250125477E-01  4.252109163268E-01
  4.305633085904E-01  4.359830256606E-01  4.414709143795E-01  4.470278322406E-01
  4.526546475238E-01  4.583522394303E-01  4.641214982206E-01  4.699633253529E-01
  4.758786336247E-01  4.818683473150E-01  4.879334023287E-01  4.940747463430E-01
  5.002933389553E-01  5.065901518335E-01  5.129661688673E-01  5.194223863224E-01
  5.259598129959E-01  5.325794703740E-01  5.392823927917E-01  5.460696275941E-01
  5.529422353007E-01  5.599012897702E-01  5.669478783691E-01  5.740831021413E-01
  5.813080759799E-01  5.886239288018E-01  5.960318037239E-01  6.035328582417E-01
  6.111282644103E-01  6.188192090273E-01  6.266068938185E-01  6.344925356254E-01
  6.424773665957E-01  6.505626343754E-01  6.587496023041E-01  6.670395496121E-01
  6.754337716206E-01  6.839335799438E-01  6.925403026942E-01  7.012552846896E-01
  7.100798876637E-01  7.190154904786E-01  7.280634893406E-01  7.372252980178E-01
  7.465023480615E-01  7.558960890295E-01  7.654079887132E-01  7.750395333660E-01
  7.847922279366E-01  7.946675963031E-01  8.046671815122E-01  8.147925460192E-01
  8.250452719330E-01  8.354269612628E-01  8.459392361688E-01  8.565837392153E-01
  8.673621336275E-01  8.782761035516E-01  8.893273543174E-01  9.005176127055E-01
  9.118486272164E-01  9.233221683442E-01  9.349400288532E-01  9.467040240575E-01
  9.586159921055E-01  9.706777942663E-01  9.828913152210E-01  9.952584633573E-01
  1.007781171067E+00  1.020461395049E+00  1.033301116614E+00  1.046302341994E+00
  1.059467102657E+00  1.072797455625E+00  1.086295483792E+00  1.099963296251E+00
  1.113803028628E+00  1.127816843407E+00  1.142006930277E+00  1.156375506466E+00
  1.170924817095E+00  1.185657135523E+00  1.200574763704E+00  1.215680032548E+00
  1.230975302284E+00  1.246462962830E+00  1.262145434163E+00  1.278025166702E+00
  1.294104641687E+00  1.310386371569E+00  1.326872900401E+00  1.343566804237E+00
  1.360470691534E+00  1.377587203558E+00  1.394919014799E+00  1.412468833388E+00
  1.430239401519E+00  1.448233495881E+00  1.466453928086E+00  1.484903545115E+00
  1.503585229758E+00  1.522501901066E+00  1.541656514807E+00  1.561052063929E+00
  1.580691579025E+00  1.600578128811E+00  1.620714820599E+00  1.641104800789E+00
  1.661751255357E+00  1.682657410353E+00  1.703826532407E+00  1.725261929236E+00
  1.746966950166E+00  1.768944986650E+00  1.791199472801E+00  1.813733885927E+00
  1.836551747077E+00  1.859656621587E+00  1.883052119642E+00  1.906741896835E+00
  1.930729654743E+00  1.955019141501E+00  1.979614152392E+00  2.004518530435E+00
  2.029736166990E+00  2.055271002365E+00  2.081127026429E+00  2.107308279239E+00
  2.133818851669E+00  2.160662886049E+00  2.187844576815E+00  2.215368171161E+00
  2.243237969704E+00  2.271458327158E+00  2.300033653011E+00  2.328968412215E+00
  2.358267125886E+00  2.387934372007E+00  2.417974786145E+00  2.448393062177E+00
  2.479193953020E+00  2.510382271376E+00  2.541962890483E+00  2.573940744877E+00
  2.606320831163E+00  2.639108208795E+00  2.672308000868E+00  2.705925394917E+00
  2.739965643727E+00  2.774434066158E+00  2.809336047970E+00  2.844677042669E+00
  2.880462572357E+00  2.916698228596E+00  2.953389673281E+00  2.990542639525E+00
  3.028162932554E+00  3.066256430617E+00  3.104829085898E+00  3.143886925455E+00
  3.183436052154E+00  3.223482645627E+00  3.264032963235E+00  3.305093341048E+00
  3.346670194834E+00  3.388770021060E+00  3.431399397910E+00  3.474564986312E+00
  3.518273530975E+00  3.562531861449E+00  3.607346893188E+00  3.652725628632E+00
  3.698675158301E+00  3.745202661903E+00  3.792315409453E+00  3.840020762416E+00
  3.888326174849E+00  3.937239194571E+00  3.986767464342E+00  4.036918723054E+00
  4.087700806944E+00  4.139121650814E+00  4.191189289278E+00  4.243911858009E+00
  4.297297595016E+00  4.351354841928E+00  4.406092045301E+00  4.461517757935E+00
  4.517640640209E+00  4.574469461438E+00  4.632013101240E+00  4.690280550928E+00
  4.749280914908E+00  4.809023412107E+00  4.869517377412E+00  4.930772263128E+00
  4.992797640456E+00  5.055603200986E+00  5.119198758217E+00  5.183594249082E+00
  5.248799735508E+00  5.314825405986E+00  5.381681577160E+00  5.449378695443E+00
  5.517927338649E+00  5.587338217641E+00  5.657622178010E+00  5.728790201770E+00
  5.800853409067E+00  5.873823059925E+00  5.947710556001E+00  6.022527442365E+00
  6.098285409309E+00  6.174996294169E+00  6.252672083177E+00  6.331324913333E+00
  6.410967074301E+00  6.491611010332E+00  6.573269322204E+00  6.655954769195E+00
  6.739680271074E+00  6.824458910121E+00  6.910303933171E+00  6.997228753683E+00
  7.085246953838E+00  7.174372286659E+00  7.264618678159E+00  7.356000229521E+00
  7.448531219299E+00  7.542226105648E+00  7.637099528585E+00  7.733166312274E+00
  7.830441467347E+00  7.928940193243E+00  8.028677880591E+00  8.129670113605E+00
  8.231932672528E+00  8.335481536094E+00  8.440332884021E+00  8.546503099548E+00
  8.654008771985E+00  8.762866699314E+00  8.873093890806E+00  8.984707569685E+00
  9.097725175815E+00  9.212164368427E+00  9.328043028878E+00  9.445379263444E+00
  9.564191406150E+00  9.684498021636E+00  9.806317908054E+00  9.929670100011E+00
  1.005457387154E+01  1.018104873910E+01  1.030911446465E+01  1.043879105873E+01
  1.057009878357E+01  1.070305815625E+01  1.083768995197E+01  1.097401520720E+01
  1.111205522305E+01  1.125183156854E+01  1.139336608403E+01  1.153668088456E+01
  1.168179836336E+01  1.182874119534E+01  1.197753234061E+01  1.212819504809E+01
  1.228075285914E+01  1.243522961122E+01  1.259164944164E+01  1.275003679132E+01
  1.291041640859E+01  1.307281335312E+01  1.323725299974E+01  1.340376104248E+01
  1.357236349858E+01  1.374308671249E+01  1.391595736008E+01  1.409100245274E+01
  1.426824934161E+01  1.444772572188E+01  1.462945963710E+01  1.481347948357E+01
  1.499981401476E+01  1.518849234582E+01  1.537954395812E+01  1.557299870388E+01
  1.576888681077E+01  1.596723888673E+01  1.616808592466E+01  1.637145930733E+01
  1.657739081223E+01  1.678591261659E+01  1.699705730237E+01  1.721085786134E+01
  1.742734770027E+01  1.764656064616E+01  1.786853095147E+01  1.809329329950E+01
  1.832088280984E+01  1.855133504380E+01  1.878468601002E+01  1.902097217006E+01
  1.926023044412E+01  1.950249821678E+01  1.974781334288E+01  1.999621415340E+01
</grid-data>
</grid>
<valence-charge total-charge="6" is-unscreening-charge="yes"
 rescaled-to-z-pseudo="no">
<radfunc>
<data>
  3.239543060369E+00  3.242714967787E+00  3.252192064609E+00  3.268249266333E+00
  3.291032870111E+00  3.320696259125E+00  3.357935499880E+00  3.399538332893E+00
  3.450222313192E+00  3.509890882935E+00  3.577658507763E+00  3.651743315514E+00
  3.729459085262E+00  3.821428577711E+00  3.913460457511E+00  4.019527109540E+00
  4.120050173250E+00  4.232935127018E+00  4.359539618522E+00  4.501323597059E+00
  4.626722262211E+00  4.763664739539E+00  4.913013649905E+00  5.075650085449E+00
  5.252461533523E+00  5.394901601166E+00  5.546170288860E+00  5.706613177394E+00
  5.876553919753E+00  6.056286234289E+00  6.246064638491E+00  6.446093810448E+00
  6.656516472754E+00  6.877399707984E+00  7.108719637970E+00  7.350344433127E+00
  7.517030746483E+00  7.688073212930E+00  7.863328084078E+00  8.042616874740E+00
  8.225723334363E+00  8.412390350499E+00  8.602316814980E+00  8.795154490392E+00
  8.990504922159E+00  9.187916449933E+00  9.386881381128E+00  9.586833399076E+00
  9.787145288397E+00  9.987127070455E+00  1.018602465203E+01  1.038301910009E+01
  1.057722666435E+01  1.076769967682E+01  1.095342846261E+01  1.113334439853E+01
  1.130632425458E+01  1.147119594696E+01  1.162674581899E+01  1.177172754742E+01
  1.190487274460E+01  1.202490329121E+01  1.213054538967E+01  1.222054527299E+01
  1.225929727214E+01  1.229368644021E+01  1.232356958330E+01  1.234880821639E+01
  1.236926919510E+01  1.238482535481E+01  1.239535615356E+01  1.240074831465E+01
  1.240089646446E+01  1.239570376107E+01  1.238508250855E+01  1.236895475186E+01
  1.234725284702E+01  1.231992000096E+01  1.228691077561E+01  1.224819155043E+01
  1.220374093784E+01  1.215355014618E+01  1.209762328471E+01  1.203597760583E+01
  1.196864367967E+01  1.189566549708E+01  1.181710049722E+01  1.173301951682E+01
  1.164350665885E+01  1.154865907923E+01  1.144858669097E+01  1.134341178622E+01
  1.123326857773E+01  1.111830266223E+01  1.099867040934E+01  1.087453828083E+01
  1.074608208593E+01  1.061348617964E+01  1.047694261176E+01  1.033665023547E+01
  1.019281378476E+01  1.004564293097E+01  9.895351328782E+00  9.742155662553E+00
  9.586274703781E+00  9.427928390269E+00  9.267336937236E+00  9.104719989877E+00
  8.940295825976E+00  8.774280616046E+00  8.606887747115E+00  8.438327214739E+00
  8.268805086145E+00  8.098523035629E+00  7.927677951525E+00  7.756461612231E+00
  7.585060427093E+00  7.413655236374E+00  7.242421163215E+00  7.071527509498E+00
  6.901137686847E+00  6.731409173825E+00  6.562493490636E+00  6.394536183395E+00
  6.227676811305E+00  6.062048931811E+00  5.897780080951E+00  5.734991748588E+00
  5.573799350872E+00  5.414312204977E+00  5.256633513649E+00  5.100860369231E+00
  4.947083788302E+00  4.795388788630E+00  4.645854519595E+00  4.498554455297E+00
  4.353556656144E+00  4.210924099604E+00  4.070715074104E+00  3.932983621695E+00
  3.797780005376E+00  3.665151166008E+00  3.535141121961E+00  3.407791252140E+00
  3.283140390205E+00  3.161224638927E+00  3.042076805847E+00  2.925725462535E+00
  2.812193874611E+00  2.701499634819E+00  2.593655260010E+00  2.488667983993E+00
  2.386540099286E+00  2.287269092806E+00  2.190847848743E+00  2.097264843888E+00
  2.006504349594E+00  1.918546637439E+00  1.833368187912E+00  1.750941901248E+00
  1.671237309578E+00  1.594220789590E+00  1.519855774928E+00  1.448102967598E+00
  1.378920547680E+00  1.312264380710E+00  1.248088222076E+00  1.186343917909E+00
  1.126981601882E+00  1.069949887477E+00  1.015196055251E+00  9.626662347046E-01
  9.123055804039E-01  8.640584420284E-01  8.178685280806E-01  7.736790630194E-01
  7.314329376247E-01  6.910728524378E-01  6.525414541589E-01  6.157814649168E-01
  5.807358043616E-01  5.473477045618E-01  5.155608177168E-01  4.853193167249E-01
  4.565679886726E-01  4.292523213355E-01  4.033185828034E-01  3.787138943634E-01
  3.553862967922E-01  3.332848102267E-01  3.123594877974E-01  2.925614632199E-01
  2.738429925540E-01  2.561574903487E-01  2.394595603982E-01  2.237050213431E-01
  2.088509273542E-01  1.948555841404E-01  1.816785605259E-01  1.692806958411E-01
  1.576241033736E-01  1.466721701229E-01  1.363895531018E-01  1.267421724233E-01
  1.176972014102E-01  1.092230539558E-01  1.012893693648E-01  9.386699489194E-02
  8.692796619324E-02  8.044548589649E-02  7.439390049052E-02  6.874867572529E-02
  6.348637070692E-02  5.858461086371E-02  5.402205995097E-02  4.977839125404E-02
  4.583425814053E-02  4.217126410414E-02  3.877193243428E-02  3.561967563694E-02
  3.269876472414E-02  2.999429848118E-02  2.749217281250E-02  2.517905025956E-02
  2.304232977602E-02  2.107011683826E-02  1.925119396211E-02  1.757499168950E-02
  1.603156010211E-02  1.461154091273E-02  1.330614017878E-02  1.210710167666E-02
  1.100668096999E-02  9.997620199555E-03  9.073123617887E-03  8.226833886554E-03
  7.452809150137E-03  6.745500896605E-03  6.099732610120E-03  5.510679218821E-03
  4.973847336900E-03  4.485056297382E-03  4.040419969345E-03  3.636329350901E-03
  3.269435927103E-03  2.936635779990E-03  2.635054436319E-03  2.362032436964E-03
  2.115111610764E-03  1.892022034401E-03  1.690669659042E-03  1.509124583673E-03
  1.345609954476E-03  1.198491469120E-03  1.066267464529E-03  9.475595664867E-04
  8.411038793166E-04  7.457426939282E-04  6.604166925836E-04  5.841576289408E-04
  5.160814621786E-04  4.553819243294E-04  4.013245003234E-04  3.532408006740E-04
  3.105233072006E-04  2.726204726933E-04  2.390321559532E-04  2.093053742046E-04
  1.830303554497E-04  1.598368739306E-04  1.393908524641E-04  1.213912160257E-04
  1.055669815691E-04  9.167456968320E-05  7.949532429419E-05  6.883322722958E-05
  5.951279505606E-05  5.137714619349E-05  4.428622688574E-05  3.811518517615E-05
  3.275288258927E-05  2.810053376081E-05  2.407046478299E-05  2.058498154255E-05
  1.757533982250E-05  1.498080941665E-05  1.274782496664E-05  1.082921667524E-05
  9.183514476834E-06  7.774319655402E-06  6.569738293384E-06  5.541871309892E-06
  4.666356205534E-06  3.921955972621E-06  3.290190954580E-06  2.755009746989E-06
  2.302495525122E-06  1.920604459565E-06  1.598933142652E-06  1.328512194620E-06
  1.101623449788E-06  9.116383402911E-07  7.528752982757E-07  6.204741875303E-07
  5.102859527698E-07  4.187758396666E-07  3.429386918033E-07  2.802249724852E-07
  2.284762903518E-07  1.858693284888E-07  1.508671877933E-07  1.221772572323E-07
  9.871481686724E-08  7.957166462934E-08  6.398913532694E-08  5.133495074839E-08
  4.108340348021E-08  3.279843466221E-08  2.611921780439E-08  2.074790743438E-08
  1.643925314685E-08  1.299181698878E-08  1.024056541509E-08  8.050636647363E-09
  6.312110501093E-09  4.935630931089E-09  3.848751975305E-09  2.992895729669E-09
  2.320826714704E-09  1.794560733795E-09  1.383638288724E-09  1.063703007974E-09
  8.153345376413E-10  6.230931070781E-10  4.747396596986E-10  3.606011672517E-10
  2.730556429968E-10  2.061155428710E-10  1.550917893508E-10  1.163236550515E-10
  8.696227710911E-11  6.479770504068E-11  4.812117200128E-11  3.561577274877E-11
  2.626997525791E-11  1.930942501043E-11  1.414335453705E-11  1.032261421231E-11
  7.506917953823E-12  5.439370144475E-12  3.926725460379E-12  2.824146324682E-12
  2.023476052356E-12  1.444250020102E-12  1.026831272765E-12  7.271882676176E-13
  5.129371065275E-13  3.603536933796E-13  2.521269619434E-13  1.756760751687E-13
  1.218950983601E-13  8.422036948447E-14  5.794046989944E-14  3.968782044097E-14
  2.706568016757E-14  1.837565772687E-14  1.241951324240E-14  8.355629298259E-15
  5.595533735192E-15  3.729633678488E-15  2.474157600860E-15  1.633424094522E-15
  1.073135427006E-15  7.015640286679E-16  4.563627535723E-16  2.953627464112E-16
</data>
</radfunc>
</valence-charge>
<semilocal-potentials set="non_relativistic">
<slps n="2" l="s" rc="1.14200693028" flavor="Troullier-Martins">
<radfunc>
<data>
 -6.129244205690E+00 -6.129018104351E+00 -6.128343593572E+00 -6.127204311925E+00
 -6.125595405299E+00 -6.123513959233E+00 -6.120921976781E+00 -6.118053635188E+00
 -6.114597624523E+00 -6.110582168768E+00 -6.106090098231E+00 -6.101260796307E+00
 -6.096284304411E+00 -6.090510730113E+00 -6.084855767540E+00 -6.078486715263E+00
 -6.072593617510E+00 -6.066137853162E+00 -6.059096688540E+00 -6.051455381292E+00
 -6.044907286008E+00 -6.037977176417E+00 -6.030677283634E+00 -6.023029057283E+00
 -6.015065159929E+00 -6.008912283710E+00 -6.002632830709E+00 -5.996257982117E+00
 -5.989825570195E+00 -5.983380975168E+00 -5.976978121557E+00 -5.970680582735E+00
 -5.964562802414E+00 -5.958711441328E+00 -5.953226856311E+00 -5.948224717194E+00
 -5.945222775172E+00 -5.942537790694E+00 -5.940217703700E+00 -5.938314737882E+00
 -5.936885685618E+00 -5.935992200903E+00 -5.935701098084E+00 -5.936084653488E+00
 -5.937220906271E+00 -5.939193953805E+00 -5.942094235841E+00 -5.946018800319E+00
 -5.951071542153E+00 -5.957363404506E+00 -5.965012529976E+00 -5.974144346679E+00
 -5.984891571460E+00 -5.997394109276E+00 -6.011798824216E+00 -6.028259153616E+00
 -6.046934532174E+00 -6.067989588064E+00 -6.091593067569E+00 -6.117916438945E+00
 -6.147132120035E+00 -6.179411267742E+00 -6.214921061095E+00 -6.253821403455E+00
 -6.274590051588E+00 -6.296260963927E+00 -6.318850197324E+00 -6.342372473729E+00
 -6.366840986348E+00 -6.392267190784E+00 -6.418660580522E+00 -6.446028446150E+00
 -6.474375617768E+00 -6.503704190106E+00 -6.534013229912E+00 -6.565298465324E+00
 -6.597551957033E+00 -6.630761751166E+00 -6.664911514040E+00 -6.699980149088E+00
 -6.735941396530E+00 -6.772763416597E+00 -6.810408357452E+00 -6.848831909288E+00
 -6.887982846478E+00 -6.927802560108E+00 -6.968224583719E+00 -7.009174115624E+00
 -7.050567541797E+00 -7.092311963994E+00 -7.134304738483E+00 -7.176433031580E+00
 -7.218573399014E+00 -7.260591397070E+00 -7.302341234413E+00 -7.343665474519E+00
 -7.384394799676E+00 -7.424347848606E+00 -7.463331140859E+00 -7.501139102199E+00
 -7.537554206282E+00 -7.572347248945E+00 -7.605277772323E+00 -7.636094656849E+00
 -7.664536899834E+00 -7.690334599743E+00 -7.713210165477E+00 -7.732879769817E+00
 -7.749055065624E+00 -7.761445182436E+00 -7.769759019503E+00 -7.773707849192E+00
 -7.773008241809E+00 -7.767385319218E+00 -7.756576340121E+00 -7.740334614344E+00
 -7.718433736892E+00 -7.690672124858E+00 -7.656877831271E+00 -7.616913599783E+00
 -7.570682112364E+00 -7.518131369105E+00 -7.459260124436E+00 -7.394123287681E+00
 -7.322837177499E+00 -7.245584499374E+00 -7.162618892470E+00 -7.074268866486E+00
 -6.980940920019E+00 -6.883121598596E+00 -6.781378211803E+00 -6.676357883524E+00
 -6.568784555302E+00 -6.459453498132E+00 -6.349222809772E+00 -6.239001279881E+00
 -6.129731890284E+00 -6.022370078679E+00 -5.917855727069E+00 -5.817077637624E+00
 -5.720829025340E+00 -5.629752287083E+00 -5.544271000082E+00 -5.464506761444E+00
 -5.390178107086E+00 -5.320478347060E+00 -5.253927343518E+00 -5.188640701709E+00
 -5.124166300221E+00 -5.060493864781E+00 -4.997613296021E+00 -4.935514644664E+00
 -4.874188105158E+00 -4.813624010224E+00 -4.753812826099E+00 -4.694745148369E+00
 -4.636411698309E+00 -4.578803319637E+00 -4.521910975619E+00 -4.465725746465E+00
 -4.410238826968E+00 -4.355441524347E+00 -4.301325256256E+00 -4.247881548934E+00
 -4.195102035478E+00 -4.142978454203E+00 -4.091502647096E+00 -4.040666558330E+00
 -3.990462232845E+00 -3.940881814967E+00 -3.891917547082E+00 -3.843561768342E+00
 -3.795806913397E+00 -3.748645511168E+00 -3.702070183634E+00 -3.656073644650E+00
 -3.610648698777E+00 -3.565788240142E+00 -3.521485251308E+00 -3.477732802162E+00
 -3.434524048824E+00 -3.391852232565E+00 -3.349710678744E+00 -3.308092795755E+00
 -3.266992073995E+00 -3.226402084836E+00 -3.186316479620E+00 -3.146728988660E+00
 -3.107633420254E+00 -3.069023659717E+00 -3.030893668417E+00 -2.993237482834E+00
 -2.956049213618E+00 -2.919323044667E+00 -2.883053232219E+00 -2.847234103945E+00
 -2.811860058063E+00 -2.776925562460E+00 -2.742425153821E+00 -2.708353436778E+00
 -2.674705083059E+00 -2.641474830653E+00 -2.608657482990E+00 -2.576247908120E+00
 -2.544241037913E+00 -2.512631867262E+00 -2.481415453299E+00 -2.450586914622E+00
 -2.420141430528E+00 -2.390074240258E+00 -2.360380642250E+00 -2.331055993404E+00
 -2.302095708352E+00 -2.273495258744E+00 -2.245250172532E+00 -2.217356033273E+00
 -2.189808479439E+00 -2.162603203727E+00 -2.135735952393E+00 -2.109202524577E+00
 -2.082998771650E+00 -2.057120596563E+00 -2.031563953204E+00 -2.006324845766E+00
 -1.981399328120E+00 -1.956783503197E+00 -1.932473522376E+00 -1.908465584885E+00
 -1.884755937202E+00 -1.861340872469E+00 -1.838216729911E+00 -1.815379894263E+00
 -1.792826795201E+00 -1.770553906790E+00 -1.748557746922E+00 -1.726834876780E+00
 -1.705381900292E+00 -1.684195463605E+00 -1.663272254556E+00 -1.642609002157E+00
 -1.622202476077E+00 -1.602049486142E+00 -1.582146881835E+00 -1.562491551797E+00
 -1.543080423348E+00 -1.523910461999E+00 -1.504978670982E+00 -1.486282090778E+00
 -1.467817798653E+00 -1.449582908205E+00 -1.431574568906E+00 -1.413789965660E+00
 -1.396226318363E+00 -1.378880881464E+00 -1.361750943537E+00 -1.344833826858E+00
 -1.328126886986E+00 -1.311627512344E+00 -1.295333123819E+00 -1.279241174350E+00
 -1.263349148534E+00 -1.247654562233E+00 -1.232154962180E+00 -1.216847925601E+00
 -1.201731059834E+00 -1.186802001951E+00 -1.172058418394E+00 -1.157498004606E+00
 -1.143118484672E+00 -1.128917610961E+00 -1.114893163777E+00 -1.101042951010E+00
 -1.087364807792E+00 -1.073856596162E+00 -1.060516204727E+00 -1.047341548334E+00
 -1.034330567744E+00 -1.021481229310E+00 -1.008791524656E+00 -9.962594703667E-01
 -9.838831076750E-01 -9.716605021554E-01 -9.595897434224E-01 -9.476689448310E-01
 -9.358962431817E-01 -9.242697984292E-01 -9.127877933941E-01 -9.014484334793E-01
 -8.902499463886E-01 -8.791905818499E-01 -8.682686113412E-01 -8.574823278204E-01
 -8.468300454580E-01 -8.363100993738E-01 -8.259208453761E-01 -8.156606597048E-01
 -8.055279387772E-01 -7.955210989375E-01 -7.856385762085E-01 -7.758788260479E-01
 -7.662403231057E-01 -7.567215609865E-01 -7.473210520134E-01 -7.380373269955E-01
 -7.288689349979E-01 -7.198144431152E-01 -7.108724362470E-01 -7.020415168769E-01
 -6.933203048538E-01 -6.847074371758E-01 -6.762015677775E-01 -6.678013673193E-01
 -6.595055229795E-01 -6.513127382490E-01 -6.432217327284E-01 -6.352312419282E-01
 -6.273400170705E-01 -6.195468248944E-01 -6.118504474623E-01 -6.042496819702E-01
 -5.967433405592E-01 -5.893302501301E-01 -5.820092521595E-01 -5.747792025189E-01
 -5.676389712959E-01 -5.605874426175E-01 -5.536235144752E-01 -5.467460985533E-01
 -5.399541200584E-01 -5.332465175514E-01 -5.266222427813E-01 -5.200802605219E-01
 -5.136195484093E-01 -5.072390967825E-01 -5.009379085252E-01 -4.947149989101E-01
 -4.885693954450E-01 -4.825001377205E-01 -4.765062772601E-01 -4.705868773717E-01
 -4.647410130014E-01 -4.589677705885E-01 -4.532662479231E-01 -4.476355540048E-01
 -4.420748089033E-01 -4.365831436213E-01 -4.311596999579E-01 -4.258036303751E-01
 -4.205140978651E-01 -4.152902758193E-01 -4.101313478992E-01 -4.050365079086E-01
 -4.000049596679E-01 -3.950359168895E-01 -3.901286030546E-01 -3.852822512922E-01
 -3.804961042589E-01 -3.757694140210E-01 -3.711014419367E-01 -3.664914585417E-01
 -3.619387434343E-01 -3.574425851632E-01 -3.530022811163E-01 -3.486171374106E-01
 -3.442864687841E-01 -3.400095984882E-01 -3.357858581826E-01 -3.316145878299E-01
 -3.274951355935E-01 -3.234268577347E-01 -3.194091185128E-01 -3.154412900853E-01
 -3.115227524099E-01 -3.076528931477E-01 -3.038311075674E-01 -3.000567984505E-01
</data>
</radfunc>
</slps>
<slps n="2" l="p" rc="1.14200693028" flavor="Troullier-Martins">
<radfunc>
<data>
 -1.848146381131E+01 -1.848123761326E+01 -1.848056166214E+01 -1.847941599492E+01
 -1.847778948725E+01 -1.847567004665E+01 -1.847300608370E+01 -1.847002514068E+01
 -1.846638567616E+01 -1.846208847836E+01 -1.845718918491E+01 -1.845180716369E+01
 -1.844612842741E+01 -1.843935926459E+01 -1.843252639852E+01 -1.842457006439E+01
 -1.841694098391E+01 -1.840826113846E+01 -1.839837179410E+01 -1.838708484932E+01
 -1.837689963505E+01 -1.836554193154E+01 -1.835285446166E+01 -1.833865360162E+01
 -1.832272418692E+01 -1.830949222927E+01 -1.829502360771E+01 -1.827917900421E+01
 -1.826180046168E+01 -1.824270875809E+01 -1.822170044881E+01 -1.819854454923E+01
 -1.817297883153E+01 -1.814470571258E+01 -1.811338771506E+01 -1.807864249222E+01
 -1.805336359584E+01 -1.802622857526E+01 -1.799708375572E+01 -1.796576273474E+01
 -1.793208551567E+01 -1.789585762175E+01 -1.785686919880E+01 -1.781489411627E+01
 -1.776968907901E+01 -1.772099276466E+01 -1.766852500447E+01 -1.761198602899E+01
 -1.755105580372E+01 -1.748539348420E+01 -1.741463702439E+01 -1.733840297783E+01
 -1.725628653595E+01 -1.716786185409E+01 -1.707268272188E+01 -1.697028364058E+01
 -1.686018137665E+01 -1.674187706632E+01 -1.661485895193E+01 -1.647860583516E+01
 -1.633259133591E+01 -1.617628904711E+01 -1.600917867536E+01 -1.583075325315E+01
 -1.573714464785E+01 -1.564052750140E+01 -1.554084611416E+01 -1.543804740828E+01
 -1.533208129677E+01 -1.522290107276E+01 -1.511046381890E+01 -1.499473083661E+01
 -1.487566809468E+01 -1.475324669660E+01 -1.462744336584E+01 -1.449824094778E+01
 -1.436562892718E+01 -1.422960395934E+01 -1.409017041326E+01 -1.394734092439E+01
 -1.380113695455E+01 -1.365158935603E+01 -1.349873893670E+01 -1.334263702248E+01
 -1.318334601307E+01 -1.302093992673E+01 -1.285550492908E+01 -1.268713984095E+01
 -1.251595661953E+01 -1.234208080688E+01 -1.216565193952E+01 -1.198682391230E+01
 -1.180576528949E+01 -1.162265955584E+01 -1.143770529973E+01 -1.125111632075E+01
 -1.106312165332E+01 -1.087396549822E+01 -1.068390705340E+01 -1.049322023556E+01
 -1.030219328369E+01 -1.011112823596E+01 -9.920340270910E+00 -9.730156904255E+00
 -9.540917032221E+00 -9.352969812402E+00 -9.166673372967E+00 -8.982393340831E+00
 -8.800501179158E+00 -8.621372324218E+00 -8.445384111193E+00 -8.272913478018E+00
 -8.104334435787E+00 -7.940015293691E+00 -7.780315625958E+00 -7.625582967949E+00
 -7.476149228589E+00 -7.332326806910E+00 -7.194404401915E+00 -7.062642507657E+00
 -6.937268589781E+00 -6.818471946465E+00 -6.706398266314E+00 -6.601143909277E+00
 -6.502749954905E+00 -6.411196086498E+00 -6.326394411039E+00 -6.248183354688E+00
 -6.176321823488E+00 -6.110483880259E+00 -6.050254263032E+00 -5.995125159235E+00
 -5.944494754638E+00 -5.897668198065E+00 -5.853861763234E+00 -5.812211148855E+00
 -5.771785038302E+00 -5.731605242068E+00 -5.690674971591E+00 -5.648017044802E+00
 -5.602724106744E+00 -5.554023270238E+00 -5.501357953220E+00 -5.444490126864E+00
 -5.383626712450E+00 -5.319604156398E+00 -5.253926068747E+00 -5.188639705746E+00
 -5.124165520725E+00 -5.060493256366E+00 -4.997612822444E+00 -4.935514277061E+00
 -4.874187820609E+00 -4.813623790581E+00 -4.753812657032E+00 -4.694745018597E+00
 -4.636411598979E+00 -4.578803243819E+00 -4.521910917908E+00 -4.465725702657E+00
 -4.410238793803E+00 -4.355441499305E+00 -4.301325237395E+00 -4.247881534763E+00
 -4.195102024854E+00 -4.142978446255E+00 -4.091502641161E+00 -4.040666553906E+00
 -3.990462229550E+00 -3.940881812515E+00 -3.891917545258E+00 -3.843561766984E+00
 -3.795806912386E+00 -3.748645510414E+00 -3.702070183070E+00 -3.656073644226E+00
 -3.610648698457E+00 -3.565788239900E+00 -3.521485251123E+00 -3.477732802020E+00
 -3.434524048714E+00 -3.391852232479E+00 -3.349710678676E+00 -3.308092795701E+00
 -3.266992073951E+00 -3.226402084801E+00 -3.186316479592E+00 -3.146728988636E+00
 -3.107633420235E+00 -3.069023659701E+00 -3.030893668404E+00 -2.993237482823E+00
 -2.956049213608E+00 -2.919323044659E+00 -2.883053232212E+00 -2.847234103939E+00
 -2.811860058058E+00 -2.776925562456E+00 -2.742425153818E+00 -2.708353436775E+00
 -2.674705083056E+00 -2.641474830651E+00 -2.608657482988E+00 -2.576247908119E+00
 -2.544241037912E+00 -2.512631867261E+00 -2.481415453298E+00 -2.450586914622E+00
 -2.420141430528E+00 -2.390074240258E+00 -2.360380642249E+00 -2.331055993403E+00
 -2.302095708352E+00 -2.273495258744E+00 -2.245250172531E+00 -2.217356033273E+00
 -2.189808479438E+00 -2.162603203727E+00 -2.135735952393E+00 -2.109202524577E+00
 -2.082998771650E+00 -2.057120596563E+00 -2.031563953204E+00 -2.006324845766E+00
 -1.981399328120E+00 -1.956783503197E+00 -1.932473522376E+00 -1.908465584885E+00
 -1.884755937202E+00 -1.861340872469E+00 -1.838216729911E+00 -1.815379894263E+00
 -1.792826795201E+00 -1.770553906790E+00 -1.748557746922E+00 -1.726834876780E+00
 -1.705381900292E+00 -1.684195463605E+00 -1.663272254556E+00 -1.642609002157E+00
 -1.622202476077E+00 -1.602049486142E+00 -1.582146881835E+00 -1.562491551797E+00
 -1.543080423348E+00 -1.523910461999E+00 -1.504978670982E+00 -1.486282090778E+00
 -1.467817798653E+00 -1.449582908205E+00 -1.431574568906E+00 -1.413789965660E+00
 -1.396226318363E+00 -1.378880881464E+00 -1.361750943537E+00 -1.344833826858E+00